Sconfig 0.00000 tap: on snoop: rts? on errs? on
Sconfig 0.00000 salvage: on !bd replies? on
Sconfig 0.00000 grat error: on grat reply: on
Sconfig 0.00000 $reply for props: on ring 0 search: on
Sconfig 0.00000 using MOBICACHE
s 0.509103939 _13_ AGT  --- 0 tcp 40 [0 0 0 0] ------- [13:0 29:15 32 0] [0 0] 0 0
r 0.509103939 _13_ RTR  --- 0 tcp 40 [0 0 0 0] ------- [13:0 29:15 32 0] [0 0] 0 0
s 0.517047373 _13_ RTR  --- 1 DSR 32 [0 0 0 0] ------- [13:255 29:255 32 0] 1 [1 1] [0 1 0 0->0] [0 0 0 0->0]
r 0.518327580 _12_ RTR  --- 1 DSR 32 [0 ffffffff d 800] ------- [13:255 29:255 32 0] 1 [1 1] [0 1 0 0->0] [0 0 0 0->0]
r 0.518327583 _14_ RTR  --- 1 DSR 32 [0 ffffffff d 800] ------- [13:255 29:255 32 0] 1 [1 1] [0 1 0 0->0] [0 0 0 0->0]
r 0.518327707 _5_ RTR  --- 1 DSR 32 [0 ffffffff d 800] ------- [13:255 29:255 32 0] 1 [1 1] [0 1 0 0->0] [0 0 0 0->0]
r 0.518327707 _21_ RTR  --- 1 DSR 32 [0 ffffffff d 800] ------- [13:255 29:255 32 0] 1 [1 1] [0 1 0 0->0] [0 0 0 0->0]
r 0.518327765 _4_ RTR  --- 1 DSR 32 [0 ffffffff d 800] ------- [13:255 29:255 32 0] 1 [1 1] [0 1 0 0->0] [0 0 0 0->0]
r 0.518327765 _20_ RTR  --- 1 DSR 32 [0 ffffffff d 800] ------- [13:255 29:255 32 0] 1 [1 1] [0 1 0 0->0] [0 0 0 0->0]
r 0.518327767 _6_ RTR  --- 1 DSR 32 [0 ffffffff d 800] ------- [13:255 29:255 32 0] 1 [1 1] [0 1 0 0->0] [0 0 0 0->0]
r 0.518327767 _22_ RTR  --- 1 DSR 32 [0 ffffffff d 800] ------- [13:255 29:255 32 0] 1 [1 1] [0 1 0 0->0] [0 0 0 0->0]
r 0.518327790 _11_ RTR  --- 1 DSR 32 [0 ffffffff d 800] ------- [13:255 29:255 32 0] 1 [1 1] [0 1 0 0->0] [0 0 0 0->0]
r 0.518327790 _15_ RTR  --- 1 DSR 32 [0 ffffffff d 800] ------- [13:255 29:255 32 0] 1 [1 1] [0 1 0 0->0] [0 0 0 0->0]
r 0.518327907 _7_ RTR  --- 1 DSR 32 [0 ffffffff d 800] ------- [13:255 29:255 32 0] 1 [1 1] [0 1 0 0->0] [0 0 0 0->0]
r 0.518327907 _3_ RTR  --- 1 DSR 32 [0 ffffffff d 800] ------- [13:255 29:255 32 0] 1 [1 1] [0 1 0 0->0] [0 0 0 0->0]
r 0.518327907 _19_ RTR  --- 1 DSR 32 [0 ffffffff d 800] ------- [13:255 29:255 32 0] 1 [1 1] [0 1 0 0->0] [0 0 0 0->0]
r 0.518327907 _23_ RTR  --- 1 DSR 32 [0 ffffffff d 800] ------- [13:255 29:255 32 0] 1 [1 1] [0 1 0 0->0] [0 0 0 0->0]
r 0.518327997 _10_ RTR  --- 1 DSR 32 [0 ffffffff d 800] ------- [13:255 29:255 32 0] 1 [1 1] [0 1 0 0->0] [0 0 0 0->0]
r 0.518328040 _29_ RTR  --- 1 DSR 32 [0 ffffffff d 800] ------- [13:255 29:255 32 0] 1 [1 1] [0 1 0 0->0] [0 0 0 0->0]
r 0.518328071 _28_ RTR  --- 1 DSR 32 [0 ffffffff d 800] ------- [13:255 29:255 32 0] 1 [1 1] [0 1 0 0->0] [0 0 0 0->0]
r 0.518328072 _30_ RTR  --- 1 DSR 32 [0 ffffffff d 800] ------- [13:255 29:255 32 0] 1 [1 1] [0 1 0 0->0] [0 0 0 0->0]
r 0.518328080 _2_ RTR  --- 1 DSR 32 [0 ffffffff d 800] ------- [13:255 29:255 32 0] 1 [1 1] [0 1 0 0->0] [0 0 0 0->0]
r 0.518328080 _18_ RTR  --- 1 DSR 32 [0 ffffffff d 800] ------- [13:255 29:255 32 0] 1 [1 1] [0 1 0 0->0] [0 0 0 0->0]
r 0.518328159 _27_ RTR  --- 1 DSR 32 [0 ffffffff d 800] ------- [13:255 29:255 32 0] 1 [1 1] [0 1 0 0->0] [0 0 0 0->0]
r 0.518328159 _31_ RTR  --- 1 DSR 32 [0 ffffffff d 800] ------- [13:255 29:255 32 0] 1 [1 1] [0 1 0 0->0] [0 0 0 0->0]
r 0.518328207 _9_ RTR  --- 1 DSR 32 [0 ffffffff d 800] ------- [13:255 29:255 32 0] 1 [1 1] [0 1 0 0->0] [0 0 0 0->0]
s 0.521034497 _29_ RTR  --- 2 DSR 44 [0 0 0 0] ------- [29:255 13:255 254 13] 2 [0 1] [1 1 2 13->29] [0 0 0 0->0]
r 0.526082163 _13_ RTR  --- 2 DSR 44 [13a d 1d 800] ------- [29:255 13:255 254 13] 2 [0 1] [1 1 2 13->29] [0 0 0 0->0]
SFESTs 0.526082163 _13_ 0 [13 -> 29] 1(1) to 29 [13 |29 ]
s 0.526082163 _13_ RTR  --- 0 tcp 76 [0 0 0 0] ------- [13:0 29:15 32 29] [0 0] 0 0
s 0.527352739 _26_ AGT  --- 3 tcp 40 [0 0 0 0] ------- [26:0 29:8 32 0] [0 0] 0 0
r 0.527352739 _26_ RTR  --- 3 tcp 40 [0 0 0 0] ------- [26:0 29:8 32 0] [0 0] 0 0
SFESTs 0.527352739 _26_ 3 [26 -> 29] 1(1) to 29 [26 |29 ]
s 0.527352739 _26_ RTR  --- 3 tcp 76 [0 0 0 0] ------- [26:0 29:8 32 29] [0 0] 0 0
r 0.528636163 _29_ RTR  --- 0 tcp 76 [13a 1d d 800] ------- [13:0 29:15 32 29] [0 0] 1 0
r 0.528636163 _29_ AGT  --- 0 tcp 40 [13a 1d d 800] ------- [13:0 29:15 32 29] [0 0] 1 0
s 0.528636163 _29_ AGT  --- 4 ack 40 [0 0 0 0] ------- [29:15 13:0 32 0] [0 0] 0 0
r 0.528636163 _29_ RTR  --- 4 ack 40 [0 0 0 0] ------- [29:15 13:0 32 0] [0 0] 0 0
SFESTs 0.528636163 _29_ 4 [29 -> 13] 1(1) to 13 [29 |13 ]
s 0.528636163 _29_ RTR  --- 4 ack 76 [0 0 0 0] ------- [29:15 13:0 32 13] [0 0] 0 0
r 0.530850163 _13_ RTR  --- 4 ack 76 [13a d 1d 800] ------- [29:15 13:0 32 13] [0 0] 1 0
r 0.530850163 _13_ AGT  --- 4 ack 40 [13a d 1d 800] ------- [29:15 13:0 32 13] [0 0] 1 0
s 0.530850163 _13_ AGT  --- 5 tcp 1040 [0 0 0 0] ------- [13:0 29:15 32 0] [1 0] 0 0
r 0.530850163 _13_ RTR  --- 5 tcp 1040 [0 0 0 0] ------- [13:0 29:15 32 0] [1 0] 0 0
SFESTs 0.530850163 _13_ 5 [13 -> 29] 1(1) to 29 [13 |29 ]
s 0.530850163 _13_ RTR  --- 5 tcp 1076 [0 0 0 0] ------- [13:0 29:15 32 29] [1 0] 0 0
r 0.541204163 _29_ RTR  --- 5 tcp 1076 [13a 1d d 800] ------- [13:0 29:15 32 29] [1 0] 1 0
r 0.541204163 _29_ AGT  --- 5 tcp 1040 [13a 1d d 800] ------- [13:0 29:15 32 29] [1 0] 1 0
s 0.541204163 _29_ AGT  --- 6 ack 40 [0 0 0 0] ------- [29:15 13:0 32 0] [1 0] 0 0
r 0.541204163 _29_ RTR  --- 6 ack 40 [0 0 0 0] ------- [29:15 13:0 32 0] [1 0] 0 0
SFESTs 0.541204163 _29_ 6 [29 -> 13] 1(1) to 13 [29 |13 ]
s 0.541204163 _29_ RTR  --- 6 ack 76 [0 0 0 0] ------- [29:15 13:0 32 13] [1 0] 0 0
r 0.543558163 _13_ RTR  --- 6 ack 76 [13a d 1d 800] ------- [29:15 13:0 32 13] [1 0] 1 0
r 0.543558163 _13_ AGT  --- 6 ack 40 [13a d 1d 800] ------- [29:15 13:0 32 13] [1 0] 1 0
r 0.546396946 _29_ RTR  --- 3 tcp 76 [13a 1d 1a 800] ------- [26:0 29:8 32 29] [0 0] 1 0
r 0.546396946 _29_ AGT  --- 3 tcp 40 [13a 1d 1a 800] ------- [26:0 29:8 32 29] [0 0] 1 0
s 0.546396946 _29_ AGT  --- 7 ack 40 [0 0 0 0] ------- [29:8 26:0 32 0] [0 0] 0 0
r 0.546396946 _29_ RTR  --- 7 ack 40 [0 0 0 0] ------- [29:8 26:0 32 0] [0 0] 0 0
s 0.550020167 _29_ RTR  --- 8 DSR 32 [0 0 0 0] ------- [29:255 26:255 32 0] 1 [1 1] [0 1 0 0->0] [0 0 0 0->0]
r 0.551440374 _28_ RTR  --- 8 DSR 32 [0 ffffffff 1d 800] ------- [29:255 26:255 32 0] 1 [1 1] [0 1 0 0->0] [0 0 0 0->0]
s 0.551440374 _28_ RTR  --- 9 DSR 48 [0 0 0 0] ------- [28:255 29:255 255 29] 2 [0 1] [1 1 3 29->26] [0 0 0 0->0]
r 0.551440377 _30_ RTR  --- 8 DSR 32 [0 ffffffff 1d 800] ------- [29:255 26:255 32 0] 1 [1 1] [0 1 0 0->0] [0 0 0 0->0]
s 0.551440377 _30_ RTR  --- 10 DSR 48 [0 0 0 0] ------- [30:255 29:255 255 29] 2 [0 1] [1 1 3 29->26] [0 0 0 0->0]
r 0.551440500 _21_ RTR  --- 8 DSR 32 [0 ffffffff 1d 800] ------- [29:255 26:255 32 0] 1 [1 1] [0 1 0 0->0] [0 0 0 0->0]
r 0.551440500 _37_ RTR  --- 8 DSR 32 [0 ffffffff 1d 800] ------- [29:255 26:255 32 0] 1 [1 1] [0 1 0 0->0] [0 0 0 0->0]
s 0.551440500 _21_ RTR  --- 11 DSR 48 [0 0 0 0] ------- [21:255 29:255 255 29] 2 [0 1] [1 1 3 29->26] [0 0 0 0->0]
s 0.551440500 _37_ RTR  --- 12 DSR 48 [0 0 0 0] ------- [37:255 29:255 255 29] 2 [0 1] [1 1 3 29->26] [0 0 0 0->0]
r 0.551440559 _20_ RTR  --- 8 DSR 32 [0 ffffffff 1d 800] ------- [29:255 26:255 32 0] 1 [1 1] [0 1 0 0->0] [0 0 0 0->0]
r 0.551440559 _36_ RTR  --- 8 DSR 32 [0 ffffffff 1d 800] ------- [29:255 26:255 32 0] 1 [1 1] [0 1 0 0->0] [0 0 0 0->0]
s 0.551440559 _20_ RTR  --- 13 DSR 48 [0 0 0 0] ------- [20:255 29:255 255 29] 2 [0 1] [1 1 3 29->26] [0 0 0 0->0]
s 0.551440559 _36_ RTR  --- 14 DSR 48 [0 0 0 0] ------- [36:255 29:255 255 29] 2 [0 1] [1 1 3 29->26] [0 0 0 0->0]
r 0.551440561 _22_ RTR  --- 8 DSR 32 [0 ffffffff 1d 800] ------- [29:255 26:255 32 0] 1 [1 1] [0 1 0 0->0] [0 0 0 0->0]
r 0.551440561 _38_ RTR  --- 8 DSR 32 [0 ffffffff 1d 800] ------- [29:255 26:255 32 0] 1 [1 1] [0 1 0 0->0] [0 0 0 0->0]
r 0.551440584 _27_ RTR  --- 8 DSR 32 [0 ffffffff 1d 800] ------- [29:255 26:255 32 0] 1 [1 1] [0 1 0 0->0] [0 0 0 0->0]
r 0.551440584 _31_ RTR  --- 8 DSR 32 [0 ffffffff 1d 800] ------- [29:255 26:255 32 0] 1 [1 1] [0 1 0 0->0] [0 0 0 0->0]
s 0.551440584 _27_ RTR  --- 15 DSR 48 [0 0 0 0] ------- [27:255 29:255 255 29] 2 [0 1] [1 1 3 29->26] [0 0 0 0->0]
r 0.551440701 _23_ RTR  --- 8 DSR 32 [0 ffffffff 1d 800] ------- [29:255 26:255 32 0] 1 [1 1] [0 1 0 0->0] [0 0 0 0->0]
r 0.551440701 _19_ RTR  --- 8 DSR 32 [0 ffffffff 1d 800] ------- [29:255 26:255 32 0] 1 [1 1] [0 1 0 0->0] [0 0 0 0->0]
r 0.551440701 _35_ RTR  --- 8 DSR 32 [0 ffffffff 1d 800] ------- [29:255 26:255 32 0] 1 [1 1] [0 1 0 0->0] [0 0 0 0->0]
r 0.551440701 _39_ RTR  --- 8 DSR 32 [0 ffffffff 1d 800] ------- [29:255 26:255 32 0] 1 [1 1] [0 1 0 0->0] [0 0 0 0->0]
s 0.551440701 _19_ RTR  --- 16 DSR 48 [0 0 0 0] ------- [19:255 29:255 255 29] 2 [0 1] [1 1 3 29->26] [0 0 0 0->0]
s 0.551440701 _35_ RTR  --- 17 DSR 48 [0 0 0 0] ------- [35:255 29:255 255 29] 2 [0 1] [1 1 3 29->26] [0 0 0 0->0]
r 0.551440790 _26_ RTR  --- 8 DSR 32 [0 ffffffff 1d 800] ------- [29:255 26:255 32 0] 1 [1 1] [0 1 0 0->0] [0 0 0 0->0]
r 0.551440834 _13_ RTR  --- 8 DSR 32 [0 ffffffff 1d 800] ------- [29:255 26:255 32 0] 1 [1 1] [0 1 0 0->0] [0 0 0 0->0]
r 0.551440865 _12_ RTR  --- 8 DSR 32 [0 ffffffff 1d 800] ------- [29:255 26:255 32 0] 1 [1 1] [0 1 0 0->0] [0 0 0 0->0]
s 0.551440865 _12_ RTR  --- 19 DSR 48 [0 0 0 0] ------- [12:255 29:255 255 29] 2 [0 1] [1 1 3 29->26] [0 0 0 0->0]
r 0.551440866 _14_ RTR  --- 8 DSR 32 [0 ffffffff 1d 800] ------- [29:255 26:255 32 0] 1 [1 1] [0 1 0 0->0] [0 0 0 0->0]
r 0.551440874 _18_ RTR  --- 8 DSR 32 [0 ffffffff 1d 800] ------- [29:255 26:255 32 0] 1 [1 1] [0 1 0 0->0] [0 0 0 0->0]
r 0.551440874 _34_ RTR  --- 8 DSR 32 [0 ffffffff 1d 800] ------- [29:255 26:255 32 0] 1 [1 1] [0 1 0 0->0] [0 0 0 0->0]
s 0.551440874 _18_ RTR  --- 20 DSR 48 [0 0 0 0] ------- [18:255 29:255 255 29] 2 [0 1] [1 1 3 29->26] [0 0 0 0->0]
s 0.551440874 _34_ RTR  --- 21 DSR 48 [0 0 0 0] ------- [34:255 29:255 255 29] 2 [0 1] [1 1 3 29->26] [0 0 0 0->0]
r 0.551440953 _15_ RTR  --- 8 DSR 32 [0 ffffffff 1d 800] ------- [29:255 26:255 32 0] 1 [1 1] [0 1 0 0->0] [0 0 0 0->0]
r 0.551440953 _11_ RTR  --- 8 DSR 32 [0 ffffffff 1d 800] ------- [29:255 26:255 32 0] 1 [1 1] [0 1 0 0->0] [0 0 0 0->0]
s 0.551440953 _11_ RTR  --- 22 DSR 48 [0 0 0 0] ------- [11:255 29:255 255 29] 2 [0 1] [1 1 3 29->26] [0 0 0 0->0]
r 0.551441000 _25_ RTR  --- 8 DSR 32 [0 ffffffff 1d 800] ------- [29:255 26:255 32 0] 1 [1 1] [0 1 0 0->0] [0 0 0 0->0]
s 0.551441000 _25_ RTR  --- 23 DSR 48 [0 0 0 0] ------- [25:255 29:255 255 29] 2 [0 1] [1 1 3 29->26] [0 0 0 0->0]
r 0.553065007 _29_ RTR  --- 10 DSR 48 [13a 1d 1e 800] ------- [30:255 29:255 255 29] 2 [0 1] [1 1 3 29->26] [0 0 0 0->0]
SFESTs 0.553065007 _29_ 7 [29 -> 26] 3(1) to 30 [29 |30 26 ]
s 0.553065007 _29_ RTR  --- 7 ack 80 [0 0 0 0] ------- [29:8 26:0 32 30] [0 0] 0 0
r 0.554975141 _29_ RTR  --- 17 DSR 48 [13a 1d 23 800] ------- [35:255 29:255 255 29] 2 [0 1] [1 1 3 29->26] [0 0 0 0->0]
r 0.556903968 _29_ RTR  --- 9 DSR 48 [13a 1d 1c 800] ------- [28:255 29:255 255 29] 2 [0 1] [1 1 3 29->26] [0 0 0 0->0]
s 0.557799554 _26_ RTR  --- 18 DSR 44 [0 0 0 0] ------- [26:255 29:255 254 29] 2 [0 1] [1 1 2 29->26] [0 0 0 0->0]
r 0.561345540 _29_ RTR  --- 12 DSR 48 [13a 1d 25 800] ------- [37:255 29:255 255 29] 2 [0 1] [1 1 3 29->26] [0 0 0 0->0]
r 0.563255207 _29_ RTR  --- 15 DSR 48 [13a 1d 1b 800] ------- [27:255 29:255 255 29] 2 [0 1] [1 1 3 29->26] [0 0 0 0->0]
s 0.567991124 _26_ RTR  --- 24 DSR 44 [0 0 0 0] ------- [26:255 29:255 255 29] 2 [0 0] [1 0 2 29->26] [0 0 0 0->0]
r 0.568015711 _30_ RTR  --- 7 ack 80 [13a 1e 1d 800] ------- [29:8 26:0 32 30] [0 0] 1 0
f 0.568015711 _30_ RTR  --- 7 ack 80 [13a 1e 1d 800] ------- [29:8 26:0 31 26] [0 0] 1 0
r 0.571048729 _29_ RTR  --- 21 DSR 48 [13a 1d 22 800] ------- [34:255 29:255 255 29] 2 [0 1] [1 1 3 29->26] [0 0 0 0->0]
r 0.572999556 _29_ RTR  --- 20 DSR 48 [13a 1d 12 800] ------- [18:255 29:255 255 29] 2 [0 1] [1 1 3 29->26] [0 0 0 0->0]
r 0.574990889 _29_ RTR  --- 23 DSR 48 [13a 1d 19 800] ------- [25:255 29:255 255 29] 2 [0 1] [1 1 3 29->26] [0 0 0 0->0]
r 0.576962034 _29_ RTR  --- 22 DSR 48 [13a 1d b 800] ------- [11:255 29:255 255 29] 2 [0 1] [1 1 3 29->26] [0 0 0 0->0]
r 0.578911603 _29_ RTR  --- 13 DSR 48 [13a 1d 14 800] ------- [20:255 29:255 255 29] 2 [0 1] [1 1 3 29->26] [0 0 0 0->0]
r 0.580841737 _29_ RTR  --- 16 DSR 48 [13a 1d 13 800] ------- [19:255 29:255 255 29] 2 [0 1] [1 1 3 29->26] [0 0 0 0->0]
r 0.582811071 _29_ RTR  --- 11 DSR 48 [13a 1d 15 800] ------- [21:255 29:255 255 29] 2 [0 1] [1 1 3 29->26] [0 0 0 0->0]
r 0.584741862 _29_ RTR  --- 19 DSR 48 [13a 1d c 800] ------- [12:255 29:255 255 29] 2 [0 1] [1 1 3 29->26] [0 0 0 0->0]
r 0.586821341 _29_ RTR  --- 14 DSR 48 [13a 1d 24 800] ------- [36:255 29:255 255 29] 2 [0 1] [1 1 3 29->26] [0 0 0 0->0]
r 0.588819834 _29_ RTR  --- 18 DSR 44 [13a 1d 1a 800] ------- [26:255 29:255 254 29] 2 [0 1] [1 1 2 29->26] [0 0 0 0->0]
r 0.591018328 _29_ RTR  --- 24 DSR 44 [13a 1d 1a 800] ------- [26:255 29:255 255 29] 2 [0 0] [1 0 2 29->26] [0 0 0 0->0]
s 0.596101155 _38_ AGT  --- 25 tcp 40 [0 0 0 0] ------- [38:0 29:4 32 0] [0 0] 0 0
r 0.596101155 _38_ RTR  --- 25 tcp 40 [0 0 0 0] ------- [38:0 29:4 32 0] [0 0] 0 0
SFESTs 0.596101155 _38_ 25 [38 -> 29] 1(1) to 29 [38 |29 ]
s 0.596101155 _38_ RTR  --- 25 tcp 76 [0 0 0 0] ------- [38:0 29:4 32 29] [0 0] 0 0
s 0.596745556 _11_ AGT  --- 26 tcp 40 [0 0 0 0] ------- [11:0 29:1 32 0] [0 0] 0 0
r 0.596745556 _11_ RTR  --- 26 tcp 40 [0 0 0 0] ------- [11:0 29:1 32 0] [0 0] 0 0
SFESTs 0.596745556 _11_ 26 [11 -> 29] 1(1) to 29 [11 |29 ]
s 0.596745556 _11_ RTR  --- 26 tcp 76 [0 0 0 0] ------- [11:0 29:1 32 29] [0 0] 0 0
r 0.598150337 _29_ RTR  --- 25 tcp 76 [13a 1d 26 800] ------- [38:0 29:4 32 29] [0 0] 1 0
r 0.598150337 _29_ AGT  --- 25 tcp 40 [13a 1d 26 800] ------- [38:0 29:4 32 29] [0 0] 1 0
s 0.598150337 _29_ AGT  --- 27 ack 40 [0 0 0 0] ------- [29:4 38:0 32 0] [0 0] 0 0
r 0.598150337 _29_ RTR  --- 27 ack 40 [0 0 0 0] ------- [29:4 38:0 32 0] [0 0] 0 0
r 0.600455482 _29_ RTR  --- 26 tcp 76 [13a 1d b 800] ------- [11:0 29:1 32 29] [0 0] 1 0
r 0.600455482 _29_ AGT  --- 26 tcp 40 [13a 1d b 800] ------- [11:0 29:1 32 29] [0 0] 1 0
s 0.600455482 _29_ AGT  --- 29 ack 40 [0 0 0 0] ------- [29:1 11:0 32 0] [0 0] 0 0
r 0.600455482 _29_ RTR  --- 29 ack 40 [0 0 0 0] ------- [29:1 11:0 32 0] [0 0] 0 0
SFESTs 0.600455482 _29_ 29 [29 -> 11] 5(1) to 11 [29 |11 ]
s 0.600455482 _29_ RTR  --- 29 ack 76 [0 0 0 0] ------- [29:1 11:0 32 11] [0 0] 0 0
s 0.602107830 _29_ RTR  --- 28 DSR 32 [0 0 0 0] ------- [29:255 38:255 32 0] 1 [1 2] [0 2 0 0->0] [0 0 0 0->0]
r 0.605113833 _28_ RTR  --- 28 DSR 32 [0 ffffffff 1d 800] ------- [29:255 38:255 32 0] 1 [1 2] [0 2 0 0->0] [0 0 0 0->0]
s 0.605113833 _28_ RTR  --- 30 DSR 48 [0 0 0 0] ------- [28:255 29:255 255 29] 2 [0 2] [1 2 3 29->38] [0 0 0 0->0]
r 0.605113836 _30_ RTR  --- 28 DSR 32 [0 ffffffff 1d 800] ------- [29:255 38:255 32 0] 1 [1 2] [0 2 0 0->0] [0 0 0 0->0]
s 0.605113836 _30_ RTR  --- 31 DSR 48 [0 0 0 0] ------- [30:255 29:255 255 29] 2 [0 2] [1 2 3 29->38] [0 0 0 0->0]
r 0.605113960 _21_ RTR  --- 28 DSR 32 [0 ffffffff 1d 800] ------- [29:255 38:255 32 0] 1 [1 2] [0 2 0 0->0] [0 0 0 0->0]
r 0.605113960 _37_ RTR  --- 28 DSR 32 [0 ffffffff 1d 800] ------- [29:255 38:255 32 0] 1 [1 2] [0 2 0 0->0] [0 0 0 0->0]
s 0.605113960 _21_ RTR  --- 32 DSR 48 [0 0 0 0] ------- [21:255 29:255 255 29] 2 [0 2] [1 2 3 29->38] [0 0 0 0->0]
s 0.605113960 _37_ RTR  --- 33 DSR 48 [0 0 0 0] ------- [37:255 29:255 255 29] 2 [0 2] [1 2 3 29->38] [0 0 0 0->0]
r 0.605114019 _20_ RTR  --- 28 DSR 32 [0 ffffffff 1d 800] ------- [29:255 38:255 32 0] 1 [1 2] [0 2 0 0->0] [0 0 0 0->0]
r 0.605114019 _36_ RTR  --- 28 DSR 32 [0 ffffffff 1d 800] ------- [29:255 38:255 32 0] 1 [1 2] [0 2 0 0->0] [0 0 0 0->0]
s 0.605114019 _20_ RTR  --- 34 DSR 48 [0 0 0 0] ------- [20:255 29:255 255 29] 2 [0 2] [1 2 3 29->38] [0 0 0 0->0]
s 0.605114019 _36_ RTR  --- 35 DSR 48 [0 0 0 0] ------- [36:255 29:255 255 29] 2 [0 2] [1 2 3 29->38] [0 0 0 0->0]
r 0.605114020 _22_ RTR  --- 28 DSR 32 [0 ffffffff 1d 800] ------- [29:255 38:255 32 0] 1 [1 2] [0 2 0 0->0] [0 0 0 0->0]
r 0.605114020 _38_ RTR  --- 28 DSR 32 [0 ffffffff 1d 800] ------- [29:255 38:255 32 0] 1 [1 2] [0 2 0 0->0] [0 0 0 0->0]
s 0.605114020 _22_ RTR  --- 36 DSR 48 [0 0 0 0] ------- [22:255 29:255 255 29] 2 [0 2] [1 2 3 29->38] [0 0 0 0->0]
r 0.605114043 _27_ RTR  --- 28 DSR 32 [0 ffffffff 1d 800] ------- [29:255 38:255 32 0] 1 [1 2] [0 2 0 0->0] [0 0 0 0->0]
r 0.605114043 _31_ RTR  --- 28 DSR 32 [0 ffffffff 1d 800] ------- [29:255 38:255 32 0] 1 [1 2] [0 2 0 0->0] [0 0 0 0->0]
s 0.605114043 _27_ RTR  --- 38 DSR 48 [0 0 0 0] ------- [27:255 29:255 255 29] 2 [0 2] [1 2 3 29->38] [0 0 0 0->0]
s 0.605114043 _31_ RTR  --- 39 DSR 48 [0 0 0 0] ------- [31:255 29:255 255 29] 2 [0 2] [1 2 3 29->38] [0 0 0 0->0]
r 0.605114160 _23_ RTR  --- 28 DSR 32 [0 ffffffff 1d 800] ------- [29:255 38:255 32 0] 1 [1 2] [0 2 0 0->0] [0 0 0 0->0]
r 0.605114160 _19_ RTR  --- 28 DSR 32 [0 ffffffff 1d 800] ------- [29:255 38:255 32 0] 1 [1 2] [0 2 0 0->0] [0 0 0 0->0]
r 0.605114160 _35_ RTR  --- 28 DSR 32 [0 ffffffff 1d 800] ------- [29:255 38:255 32 0] 1 [1 2] [0 2 0 0->0] [0 0 0 0->0]
r 0.605114160 _39_ RTR  --- 28 DSR 32 [0 ffffffff 1d 800] ------- [29:255 38:255 32 0] 1 [1 2] [0 2 0 0->0] [0 0 0 0->0]
s 0.605114160 _23_ RTR  --- 40 DSR 48 [0 0 0 0] ------- [23:255 29:255 255 29] 2 [0 2] [1 2 3 29->38] [0 0 0 0->0]
s 0.605114160 _35_ RTR  --- 41 DSR 48 [0 0 0 0] ------- [35:255 29:255 255 29] 2 [0 2] [1 2 3 29->38] [0 0 0 0->0]
s 0.605114160 _39_ RTR  --- 42 DSR 48 [0 0 0 0] ------- [39:255 29:255 255 29] 2 [0 2] [1 2 3 29->38] [0 0 0 0->0]
r 0.605114250 _26_ RTR  --- 28 DSR 32 [0 ffffffff 1d 800] ------- [29:255 38:255 32 0] 1 [1 2] [0 2 0 0->0] [0 0 0 0->0]
r 0.605114293 _13_ RTR  --- 28 DSR 32 [0 ffffffff 1d 800] ------- [29:255 38:255 32 0] 1 [1 2] [0 2 0 0->0] [0 0 0 0->0]
r 0.605114324 _12_ RTR  --- 28 DSR 32 [0 ffffffff 1d 800] ------- [29:255 38:255 32 0] 1 [1 2] [0 2 0 0->0] [0 0 0 0->0]
r 0.605114325 _14_ RTR  --- 28 DSR 32 [0 ffffffff 1d 800] ------- [29:255 38:255 32 0] 1 [1 2] [0 2 0 0->0] [0 0 0 0->0]
r 0.605114333 _18_ RTR  --- 28 DSR 32 [0 ffffffff 1d 800] ------- [29:255 38:255 32 0] 1 [1 2] [0 2 0 0->0] [0 0 0 0->0]
r 0.605114333 _34_ RTR  --- 28 DSR 32 [0 ffffffff 1d 800] ------- [29:255 38:255 32 0] 1 [1 2] [0 2 0 0->0] [0 0 0 0->0]
s 0.605114333 _34_ RTR  --- 43 DSR 48 [0 0 0 0] ------- [34:255 29:255 255 29] 2 [0 2] [1 2 3 29->38] [0 0 0 0->0]
r 0.605114413 _15_ RTR  --- 28 DSR 32 [0 ffffffff 1d 800] ------- [29:255 38:255 32 0] 1 [1 2] [0 2 0 0->0] [0 0 0 0->0]
r 0.605114413 _11_ RTR  --- 28 DSR 32 [0 ffffffff 1d 800] ------- [29:255 38:255 32 0] 1 [1 2] [0 2 0 0->0] [0 0 0 0->0]
r 0.605114460 _25_ RTR  --- 28 DSR 32 [0 ffffffff 1d 800] ------- [29:255 38:255 32 0] 1 [1 2] [0 2 0 0->0] [0 0 0 0->0]
r 0.606859195 _29_ RTR  --- 34 DSR 48 [13a 1d 14 800] ------- [20:255 29:255 255 29] 2 [0 2] [1 2 3 29->38] [0 0 0 0->0]
SFESTs 0.606859195 _29_ 27 [29 -> 38] 7(1) to 20 [29 |20 38 ]
s 0.606859195 _29_ RTR  --- 27 ack 80 [0 0 0 0] ------- [29:4 38:0 32 20] [0 0] 0 0
r 0.608789330 _29_ RTR  --- 41 DSR 48 [13a 1d 23 800] ------- [35:255 29:255 255 29] 2 [0 2] [1 2 3 29->38] [0 0 0 0->0]
r 0.612472878 _29_ RTR  --- 42 DSR 48 [13a 1d 27 800] ------- [39:255 29:255 255 29] 2 [0 2] [1 2 3 29->38] [0 0 0 0->0]
r 0.614402446 _29_ RTR  --- 35 DSR 48 [13a 1d 24 800] ------- [36:255 29:255 255 29] 2 [0 2] [1 2 3 29->38] [0 0 0 0->0]
s 0.614628742 _38_ RTR  --- 37 DSR 44 [0 0 0 0] ------- [38:255 29:255 254 29] 2 [0 2] [1 2 2 29->38] [0 0 0 0->0]
r 0.616332022 _29_ RTR  --- 36 DSR 48 [13a 1d 16 800] ------- [22:255 29:255 255 29] 2 [0 2] [1 2 3 29->38] [0 0 0 0->0]
r 0.619068022 _29_ RTR  --- 32 DSR 48 [13a 1d 15 800] ------- [21:255 29:255 255 29] 2 [0 2] [1 2 3 29->38] [0 0 0 0->0]
r 0.620976862 _29_ RTR  --- 31 DSR 48 [13a 1d 1e 800] ------- [30:255 29:255 255 29] 2 [0 2] [1 2 3 29->38] [0 0 0 0->0]
r 0.622925689 _29_ RTR  --- 30 DSR 48 [13a 1d 1c 800] ------- [28:255 29:255 255 29] 2 [0 2] [1 2 3 29->38] [0 0 0 0->0]
r 0.624875356 _29_ RTR  --- 38 DSR 48 [13a 1d 1b 800] ------- [27:255 29:255 255 29] 2 [0 2] [1 2 3 29->38] [0 0 0 0->0]
r 0.626886183 _29_ RTR  --- 43 DSR 48 [13a 1d 22 800] ------- [34:255 29:255 255 29] 2 [0 2] [1 2 3 29->38] [0 0 0 0->0]
r 0.628803759 _29_ RTR  --- 37 DSR 44 [13a 1d 26 800] ------- [38:255 29:255 254 29] 2 [0 2] [1 2 2 29->38] [0 0 0 0->0]
r 0.630913893 _29_ RTR  --- 40 DSR 48 [13a 1d 17 800] ------- [23:255 29:255 255 29] 2 [0 2] [1 2 3 29->38] [0 0 0 0->0]
r 0.633223227 _29_ RTR  --- 33 DSR 48 [13a 1d 25 800] ------- [37:255 29:255 255 29] 2 [0 2] [1 2 3 29->38] [0 0 0 0->0]
r 0.635357585 _11_ RTR  --- 29 ack 76 [13a b 1d 800] ------- [29:1 11:0 32 11] [0 0] 1 0
r 0.635357585 _11_ AGT  --- 29 ack 40 [13a b 1d 800] ------- [29:1 11:0 32 11] [0 0] 1 0
s 0.635357585 _11_ AGT  --- 44 tcp 1040 [0 0 0 0] ------- [11:0 29:1 32 0] [1 0] 0 0
r 0.635357585 _11_ RTR  --- 44 tcp 1040 [0 0 0 0] ------- [11:0 29:1 32 0] [1 0] 0 0
SFESTs 0.635357585 _11_ 44 [11 -> 29] 1(1) to 29 [11 |29 ]
s 0.635357585 _11_ RTR  --- 44 tcp 1076 [0 0 0 0] ------- [11:0 29:1 32 29] [1 0] 0 0
r 0.638146038 _29_ RTR  --- 39 DSR 48 [13a 1d 1f 800] ------- [31:255 29:255 255 29] 2 [0 2] [1 2 3 29->38] [0 0 0 0->0]
s 0.641788477 _10_ AGT  --- 45 tcp 40 [0 0 0 0] ------- [10:0 29:2 32 0] [0 0] 0 0
r 0.641788477 _10_ RTR  --- 45 tcp 40 [0 0 0 0] ------- [10:0 29:2 32 0] [0 0] 0 0
SFESTs 0.641788477 _10_ 45 [10 -> 29] 1(1) to 13 [10 |13 29 ]
s 0.641788477 _10_ RTR  --- 45 tcp 80 [0 0 0 0] ------- [10:0 29:2 32 13] [0 0] 0 0
s 0.645779347 _38_ AGT  --- 46 tcp 40 [0 0 0 0] ------- [38:1 29:16 32 0] [0 0] 0 0
r 0.645779347 _38_ RTR  --- 46 tcp 40 [0 0 0 0] ------- [38:1 29:16 32 0] [0 0] 0 0
SFESTs 0.645779347 _38_ 46 [38 -> 29] 1(1) to 29 [38 |29 ]
s 0.645779347 _38_ RTR  --- 46 tcp 76 [0 0 0 0] ------- [38:1 29:16 32 29] [0 0] 0 0
r 0.648671047 _29_ RTR  --- 44 tcp 1076 [13a 1d b 800] ------- [11:0 29:1 32 29] [1 0] 1 0
r 0.648671047 _29_ AGT  --- 44 tcp 1040 [13a 1d b 800] ------- [11:0 29:1 32 29] [1 0] 1 0
s 0.648671047 _29_ AGT  --- 47 ack 40 [0 0 0 0] ------- [29:1 11:0 32 0] [1 0] 0 0
r 0.648671047 _29_ RTR  --- 47 ack 40 [0 0 0 0] ------- [29:1 11:0 32 0] [1 0] 0 0
SFESTs 0.648671047 _29_ 47 [29 -> 11] 5(1) to 11 [29 |11 ]
s 0.648671047 _29_ RTR  --- 47 ack 76 [0 0 0 0] ------- [29:1 11:0 32 11] [1 0] 0 0
r 0.656647675 _13_ RTR  --- 45 tcp 80 [13a d a 800] ------- [10:0 29:2 32 13] [0 0] 1 0
f 0.656647675 _13_ RTR  --- 45 tcp 80 [13a d a 800] ------- [10:0 29:2 31 29] [0 0] 1 0
r 0.658853675 _29_ RTR  --- 45 tcp 80 [13a 1d d 800] ------- [10:0 29:2 31 29] [0 0] 2 0
r 0.658853675 _29_ AGT  --- 45 tcp 40 [13a 1d d 800] ------- [10:0 29:2 31 29] [0 0] 2 0
s 0.658853675 _29_ AGT  --- 48 ack 40 [0 0 0 0] ------- [29:2 10:0 32 0] [0 0] 0 0
r 0.658853675 _29_ RTR  --- 48 ack 40 [0 0 0 0] ------- [29:2 10:0 32 0] [0 0] 0 0
s 0.661254689 _29_ RTR  --- 49 DSR 32 [0 0 0 0] ------- [29:255 10:255 32 0] 1 [1 3] [0 3 0 0->0] [0 0 0 0->0]
r 0.661417212 _29_ RTR  --- 46 tcp 76 [13a 1d 26 800] ------- [38:1 29:16 32 29] [0 0] 1 0
r 0.661417212 _29_ AGT  --- 46 tcp 40 [13a 1d 26 800] ------- [38:1 29:16 32 29] [0 0] 1 0
s 0.661417212 _29_ AGT  --- 50 ack 40 [0 0 0 0] ------- [29:16 38:1 32 0] [0 0] 0 0
r 0.661417212 _29_ RTR  --- 50 ack 40 [0 0 0 0] ------- [29:16 38:1 32 0] [0 0] 0 0
SFESTs 0.661417212 _29_ 50 [29 -> 38] 9(1) to 38 [29 |38 ]
s 0.661417212 _29_ RTR  --- 50 ack 76 [0 0 0 0] ------- [29:16 38:1 32 38] [0 0] 0 0
r 0.663651570 _11_ RTR  --- 47 ack 76 [13a b 1d 800] ------- [29:1 11:0 32 11] [1 0] 1 0
r 0.663651570 _11_ AGT  --- 47 ack 40 [13a b 1d 800] ------- [29:1 11:0 32 11] [1 0] 1 0
r 0.665236563 _28_ RTR  --- 49 DSR 32 [0 ffffffff 1d 800] ------- [29:255 10:255 32 0] 1 [1 3] [0 3 0 0->0] [0 0 0 0->0]
s 0.665236563 _28_ RTR  --- 51 DSR 48 [0 0 0 0] ------- [28:255 29:255 255 29] 2 [0 3] [1 3 3 29->10] [0 0 0 0->0]
r 0.665236567 _30_ RTR  --- 49 DSR 32 [0 ffffffff 1d 800] ------- [29:255 10:255 32 0] 1 [1 3] [0 3 0 0->0] [0 0 0 0->0]
r 0.665236690 _21_ RTR  --- 49 DSR 32 [0 ffffffff 1d 800] ------- [29:255 10:255 32 0] 1 [1 3] [0 3 0 0->0] [0 0 0 0->0]
r 0.665236690 _37_ RTR  --- 49 DSR 32 [0 ffffffff 1d 800] ------- [29:255 10:255 32 0] 1 [1 3] [0 3 0 0->0] [0 0 0 0->0]
s 0.665236690 _21_ RTR  --- 52 DSR 48 [0 0 0 0] ------- [21:255 29:255 255 29] 2 [0 3] [1 3 3 29->10] [0 0 0 0->0]
r 0.665236749 _20_ RTR  --- 49 DSR 32 [0 ffffffff 1d 800] ------- [29:255 10:255 32 0] 1 [1 3] [0 3 0 0->0] [0 0 0 0->0]
r 0.665236749 _36_ RTR  --- 49 DSR 32 [0 ffffffff 1d 800] ------- [29:255 10:255 32 0] 1 [1 3] [0 3 0 0->0] [0 0 0 0->0]
s 0.665236749 _20_ RTR  --- 53 DSR 48 [0 0 0 0] ------- [20:255 29:255 255 29] 2 [0 3] [1 3 3 29->10] [0 0 0 0->0]
r 0.665236751 _22_ RTR  --- 49 DSR 32 [0 ffffffff 1d 800] ------- [29:255 10:255 32 0] 1 [1 3] [0 3 0 0->0] [0 0 0 0->0]
r 0.665236751 _38_ RTR  --- 49 DSR 32 [0 ffffffff 1d 800] ------- [29:255 10:255 32 0] 1 [1 3] [0 3 0 0->0] [0 0 0 0->0]
r 0.665236773 _27_ RTR  --- 49 DSR 32 [0 ffffffff 1d 800] ------- [29:255 10:255 32 0] 1 [1 3] [0 3 0 0->0] [0 0 0 0->0]
r 0.665236773 _31_ RTR  --- 49 DSR 32 [0 ffffffff 1d 800] ------- [29:255 10:255 32 0] 1 [1 3] [0 3 0 0->0] [0 0 0 0->0]
s 0.665236773 _27_ RTR  --- 54 DSR 48 [0 0 0 0] ------- [27:255 29:255 255 29] 2 [0 3] [1 3 3 29->10] [0 0 0 0->0]
r 0.665236890 _23_ RTR  --- 49 DSR 32 [0 ffffffff 1d 800] ------- [29:255 10:255 32 0] 1 [1 3] [0 3 0 0->0] [0 0 0 0->0]
r 0.665236890 _19_ RTR  --- 49 DSR 32 [0 ffffffff 1d 800] ------- [29:255 10:255 32 0] 1 [1 3] [0 3 0 0->0] [0 0 0 0->0]
r 0.665236890 _35_ RTR  --- 49 DSR 32 [0 ffffffff 1d 800] ------- [29:255 10:255 32 0] 1 [1 3] [0 3 0 0->0] [0 0 0 0->0]
r 0.665236890 _39_ RTR  --- 49 DSR 32 [0 ffffffff 1d 800] ------- [29:255 10:255 32 0] 1 [1 3] [0 3 0 0->0] [0 0 0 0->0]
s 0.665236890 _19_ RTR  --- 55 DSR 48 [0 0 0 0] ------- [19:255 29:255 255 29] 2 [0 3] [1 3 3 29->10] [0 0 0 0->0]
r 0.665236980 _26_ RTR  --- 49 DSR 32 [0 ffffffff 1d 800] ------- [29:255 10:255 32 0] 1 [1 3] [0 3 0 0->0] [0 0 0 0->0]
s 0.665236980 _26_ RTR  --- 56 DSR 48 [0 0 0 0] ------- [26:255 29:255 255 29] 2 [0 3] [1 3 3 29->10] [0 0 0 0->0]
r 0.665237023 _13_ RTR  --- 49 DSR 32 [0 ffffffff 1d 800] ------- [29:255 10:255 32 0] 1 [1 3] [0 3 0 0->0] [0 0 0 0->0]
r 0.665237055 _12_ RTR  --- 49 DSR 32 [0 ffffffff 1d 800] ------- [29:255 10:255 32 0] 1 [1 3] [0 3 0 0->0] [0 0 0 0->0]
s 0.665237055 _12_ RTR  --- 57 DSR 48 [0 0 0 0] ------- [12:255 29:255 255 29] 2 [0 3] [1 3 3 29->10] [0 0 0 0->0]
r 0.665237056 _14_ RTR  --- 49 DSR 32 [0 ffffffff 1d 800] ------- [29:255 10:255 32 0] 1 [1 3] [0 3 0 0->0] [0 0 0 0->0]
s 0.665237056 _14_ RTR  --- 58 DSR 48 [0 0 0 0] ------- [14:255 29:255 255 29] 2 [0 3] [1 3 3 29->10] [0 0 0 0->0]
r 0.665237063 _18_ RTR  --- 49 DSR 32 [0 ffffffff 1d 800] ------- [29:255 10:255 32 0] 1 [1 3] [0 3 0 0->0] [0 0 0 0->0]
r 0.665237063 _34_ RTR  --- 49 DSR 32 [0 ffffffff 1d 800] ------- [29:255 10:255 32 0] 1 [1 3] [0 3 0 0->0] [0 0 0 0->0]
s 0.665237063 _18_ RTR  --- 59 DSR 48 [0 0 0 0] ------- [18:255 29:255 255 29] 2 [0 3] [1 3 3 29->10] [0 0 0 0->0]
r 0.665237143 _15_ RTR  --- 49 DSR 32 [0 ffffffff 1d 800] ------- [29:255 10:255 32 0] 1 [1 3] [0 3 0 0->0] [0 0 0 0->0]
r 0.665237143 _11_ RTR  --- 49 DSR 32 [0 ffffffff 1d 800] ------- [29:255 10:255 32 0] 1 [1 3] [0 3 0 0->0] [0 0 0 0->0]
s 0.665237143 _11_ RTR  --- 60 DSR 48 [0 0 0 0] ------- [11:255 29:255 255 29] 2 [0 3] [1 3 3 29->10] [0 0 0 0->0]
r 0.665237190 _25_ RTR  --- 49 DSR 32 [0 ffffffff 1d 800] ------- [29:255 10:255 32 0] 1 [1 3] [0 3 0 0->0] [0 0 0 0->0]
s 0.665237190 _25_ RTR  --- 61 DSR 48 [0 0 0 0] ------- [25:255 29:255 255 29] 2 [0 3] [1 3 3 29->10] [0 0 0 0->0]
r 0.666923501 _29_ RTR  --- 60 DSR 48 [13a 1d b 800] ------- [11:255 29:255 255 29] 2 [0 3] [1 3 3 29->10] [0 0 0 0->0]
SFESTs 0.666923501 _29_ 48 [29 -> 10] 11(1) to 11 [29 |11 10 ]
s 0.666923501 _29_ RTR  --- 48 ack 80 [0 0 0 0] ------- [29:2 10:0 32 11] [0 0] 0 0
r 0.668874293 _29_ RTR  --- 57 DSR 48 [13a 1d c 800] ------- [12:255 29:255 255 29] 2 [0 3] [1 3 3 29->10] [0 0 0 0->0]
r 0.671590807 _29_ RTR  --- 55 DSR 48 [13a 1d 13 800] ------- [19:255 29:255 255 29] 2 [0 3] [1 3 3 29->10] [0 0 0 0->0]
r 0.673561301 _29_ RTR  --- 56 DSR 48 [13a 1d 1a 800] ------- [26:255 29:255 255 29] 2 [0 3] [1 3 3 29->10] [0 0 0 0->0]
r 0.676378323 _29_ RTR  --- 58 DSR 48 [13a 1d e 800] ------- [14:255 29:255 255 29] 2 [0 3] [1 3 3 29->10] [0 0 0 0->0]
r 0.678347150 _29_ RTR  --- 51 DSR 48 [13a 1d 1c 800] ------- [28:255 29:255 255 29] 2 [0 3] [1 3 3 29->10] [0 0 0 0->0]
r 0.680376817 _29_ RTR  --- 54 DSR 48 [13a 1d 1b 800] ------- [27:255 29:255 255 29] 2 [0 3] [1 3 3 29->10] [0 0 0 0->0]
r 0.682288150 _29_ RTR  --- 61 DSR 48 [13a 1d 19 800] ------- [25:255 29:255 255 29] 2 [0 3] [1 3 3 29->10] [0 0 0 0->0]
r 0.684538978 _29_ RTR  --- 59 DSR 48 [13a 1d 12 800] ------- [18:255 29:255 255 29] 2 [0 3] [1 3 3 29->10] [0 0 0 0->0]
r 0.686608311 _29_ RTR  --- 52 DSR 48 [13a 1d 15 800] ------- [21:255 29:255 255 29] 2 [0 3] [1 3 3 29->10] [0 0 0 0->0]
r 0.688757880 _29_ RTR  --- 53 DSR 48 [13a 1d 14 800] ------- [20:255 29:255 255 29] 2 [0 3] [1 3 3 29->10] [0 0 0 0->0]
s 0.691398058 _38_ RTR  --- 62 DSR 44 [0 0 0 0] ------- [38:255 29:255 255 29] 2 [0 0] [1 0 2 29->38] [0 0 0 0->0]
r 0.691423056 _20_ RTR  --- 27 ack 80 [13a 14 1d 800] ------- [29:4 38:0 32 20] [0 0] 1 0
f 0.691423056 _20_ RTR  --- 27 ack 80 [13a 14 1d 800] ------- [29:4 38:0 31 38] [0 0] 1 0
r 0.693661024 _29_ RTR  --- 62 DSR 44 [13a 1d 26 800] ------- [38:255 29:255 255 29] 2 [0 0] [1 0 2 29->38] [0 0 0 0->0]
s 0.696705002 _37_ AGT  --- 63 tcp 40 [0 0 0 0] ------- [37:0 29:3 32 0] [0 0] 0 0
r 0.696705002 _37_ RTR  --- 63 tcp 40 [0 0 0 0] ------- [37:0 29:3 32 0] [0 0] 0 0
SFESTs 0.696705002 _37_ 63 [37 -> 29] 1(1) to 29 [37 |29 ]
s 0.696705002 _37_ RTR  --- 63 tcp 76 [0 0 0 0] ------- [37:0 29:3 32 29] [0 0] 0 0
r 0.696766167 _11_ RTR  --- 48 ack 80 [13a b 1d 800] ------- [29:2 10:0 32 11] [0 0] 1 0
f 0.696766167 _11_ RTR  --- 48 ack 80 [13a b 1d 800] ------- [29:2 10:0 31 10] [0 0] 1 0