n -t * -s 0  -x 1 -y 1 -Z 0 -z 20  -v circle -c black
n -t * -s 1  -x 1 -y 63 -Z 0 -z 20  -v circle -c black
n -t * -s 2  -x 1 -y 126 -Z 0 -z 20  -v circle -c black
n -t * -s 3  -x 1 -y 188 -Z 0 -z 20  -v circle -c black
n -t * -s 4  -x 1 -y 251 -Z 0 -z 20  -v circle -c black
n -t * -s 5  -x 1 -y 313 -Z 0 -z 20  -v circle -c black
n -t * -s 6  -x 1 -y 376 -Z 0 -z 20  -v circle -c black
n -t * -s 7  -x 1 -y 438 -Z 0 -z 20  -v circle -c black
n -t * -s 8  -x 101 -y 1 -Z 0 -z 20  -v circle -c black
n -t * -s 9  -x 101 -y 63 -Z 0 -z 20  -v circle -c black
n -t * -s 10  -x 101 -y 126 -Z 0 -z 20  -v circle -c black
n -t * -s 11  -x 101 -y 188 -Z 0 -z 20  -v circle -c black
n -t * -s 12  -x 101 -y 251 -Z 0 -z 20  -v circle -c black
n -t * -s 13  -x 101 -y 313 -Z 0 -z 20  -v circle -c black
n -t * -s 14  -x 101 -y 376 -Z 0 -z 20  -v circle -c black
n -t * -s 15  -x 101 -y 438 -Z 0 -z 20  -v circle -c black
n -t * -s 16  -x 201 -y 1 -Z 0 -z 20  -v circle -c black
n -t * -s 17  -x 201 -y 63 -Z 0 -z 20  -v circle -c black
n -t * -s 18  -x 201 -y 126 -Z 0 -z 20  -v circle -c black
n -t * -s 19  -x 201 -y 188 -Z 0 -z 20  -v circle -c black
n -t * -s 20  -x 201 -y 251 -Z 0 -z 20  -v circle -c black
n -t * -s 21  -x 201 -y 313 -Z 0 -z 20  -v circle -c black
n -t * -s 22  -x 201 -y 376 -Z 0 -z 20  -v circle -c black
n -t * -s 23  -x 201 -y 438 -Z 0 -z 20  -v circle -c black
n -t * -s 24  -x 301 -y 1 -Z 0 -z 20  -v circle -c black
n -t * -s 25  -x 301 -y 63 -Z 0 -z 20  -v circle -c black
n -t * -s 26  -x 301 -y 126 -Z 0 -z 20  -v circle -c black
n -t * -s 27  -x 301 -y 188 -Z 0 -z 20  -v circle -c black
n -t * -s 28  -x 301 -y 251 -Z 0 -z 20  -v circle -c black
n -t * -s 29  -x 301 -y 313 -Z 0 -z 20  -v circle -c black
n -t * -s 30  -x 301 -y 376 -Z 0 -z 20  -v circle -c black
n -t * -s 31  -x 301 -y 438 -Z 0 -z 20  -v circle -c black
n -t * -s 32  -x 401 -y 1 -Z 0 -z 20  -v circle -c black
n -t * -s 33  -x 401 -y 63 -Z 0 -z 20  -v circle -c black
n -t * -s 34  -x 401 -y 126 -Z 0 -z 20  -v circle -c black
n -t * -s 35  -x 401 -y 188 -Z 0 -z 20  -v circle -c black
n -t * -s 36  -x 401 -y 251 -Z 0 -z 20  -v circle -c black
n -t * -s 37  -x 401 -y 313 -Z 0 -z 20  -v circle -c black
n -t * -s 38  -x 401 -y 376 -Z 0 -z 20  -v circle -c black
n -t * -s 39  -x 401 -y 438 -Z 0 -z 20  -v circle -c black
V -t * -v 1.0a5 -a 0
W -t * -x 500 -y 500
A -t * -n 1 -p 0 -o 0x7fffffff -c 30 -a 1
A -t * -h 1 -m 1073741823 -s 0
+ -t 0.509103939 -s 13 -d -1 -p tcp -e 40 -c 2 -a 0 -i 0 -k AGT 
- -t 0.509103939 -s 13 -d -1 -p tcp -e 40 -c 2 -a 0 -i 0 -k AGT
h -t 0.509103939 -s 13 -d -1 -p tcp -e 40 -c 2 -a 0 -i 0 -k AGT
+ -t 0.517047373 -s 13 -d -1 -p DSR -e 32 -c 2 -a 0 -i 1 -k RTR 
- -t 0.517047373 -s 13 -d -1 -p DSR -e 32 -c 2 -a 0 -i 1 -k RTR
h -t 0.517047373 -s 13 -d -1 -p DSR -e 32 -c 2 -a 0 -i 1 -k RTR
+ -t 0.521034497 -s 29 -d 13 -p DSR -e 44 -c 2 -a 0 -i 2 -k RTR 
- -t 0.521034497 -s 29 -d 13 -p DSR -e 44 -c 2 -a 0 -i 2 -k RTR
h -t 0.521034497 -s 29 -d 13 -p DSR -e 44 -c 2 -a 0 -i 2 -k RTR
+ -t 0.526082163 -s 13 -d 29 -p tcp -e 76 -c 2 -a 0 -i 0 -k RTR 
- -t 0.526082163 -s 13 -d 29 -p tcp -e 76 -c 2 -a 0 -i 0 -k RTR
h -t 0.526082163 -s 13 -d 29 -p tcp -e 76 -c 2 -a 0 -i 0 -k RTR
+ -t 0.527352739 -s 26 -d -1 -p tcp -e 40 -c 2 -a 0 -i 3 -k AGT 
- -t 0.527352739 -s 26 -d -1 -p tcp -e 40 -c 2 -a 0 -i 3 -k AGT
h -t 0.527352739 -s 26 -d -1 -p tcp -e 40 -c 2 -a 0 -i 3 -k AGT
+ -t 0.527352739 -s 26 -d 29 -p tcp -e 76 -c 2 -a 0 -i 3 -k RTR 
- -t 0.527352739 -s 26 -d 29 -p tcp -e 76 -c 2 -a 0 -i 3 -k RTR
h -t 0.527352739 -s 26 -d 29 -p tcp -e 76 -c 2 -a 0 -i 3 -k RTR
r -t 0.528636163 -s 29 -d 29 -p tcp -e 40 -c 2 -a 0 -i 0 -k AGT
+ -t 0.528636163 -s 29 -d -1 -p ack -e 40 -c 2 -a 0 -i 4 -k AGT 
- -t 0.528636163 -s 29 -d -1 -p ack -e 40 -c 2 -a 0 -i 4 -k AGT
h -t 0.528636163 -s 29 -d -1 -p ack -e 40 -c 2 -a 0 -i 4 -k AGT
+ -t 0.528636163 -s 29 -d 13 -p ack -e 76 -c 2 -a 0 -i 4 -k RTR 
- -t 0.528636163 -s 29 -d 13 -p ack -e 76 -c 2 -a 0 -i 4 -k RTR
h -t 0.528636163 -s 29 -d 13 -p ack -e 76 -c 2 -a 0 -i 4 -k RTR
r -t 0.530850163 -s 13 -d 13 -p ack -e 40 -c 2 -a 0 -i 4 -k AGT
+ -t 0.530850163 -s 13 -d -1 -p tcp -e 1040 -c 2 -a 0 -i 5 -k AGT 
- -t 0.530850163 -s 13 -d -1 -p tcp -e 1040 -c 2 -a 0 -i 5 -k AGT
h -t 0.530850163 -s 13 -d -1 -p tcp -e 1040 -c 2 -a 0 -i 5 -k AGT
+ -t 0.530850163 -s 13 -d 29 -p tcp -e 1076 -c 2 -a 0 -i 5 -k RTR 
- -t 0.530850163 -s 13 -d 29 -p tcp -e 1076 -c 2 -a 0 -i 5 -k RTR
h -t 0.530850163 -s 13 -d 29 -p tcp -e 1076 -c 2 -a 0 -i 5 -k RTR
r -t 0.541204163 -s 29 -d 29 -p tcp -e 1040 -c 2 -a 0 -i 5 -k AGT
+ -t 0.541204163 -s 29 -d -1 -p ack -e 40 -c 2 -a 0 -i 6 -k AGT 
- -t 0.541204163 -s 29 -d -1 -p ack -e 40 -c 2 -a 0 -i 6 -k AGT
h -t 0.541204163 -s 29 -d -1 -p ack -e 40 -c 2 -a 0 -i 6 -k AGT
+ -t 0.541204163 -s 29 -d 13 -p ack -e 76 -c 2 -a 0 -i 6 -k RTR 
- -t 0.541204163 -s 29 -d 13 -p ack -e 76 -c 2 -a 0 -i 6 -k RTR
h -t 0.541204163 -s 29 -d 13 -p ack -e 76 -c 2 -a 0 -i 6 -k RTR
r -t 0.543558163 -s 13 -d 13 -p ack -e 40 -c 2 -a 0 -i 6 -k AGT
r -t 0.546396946 -s 29 -d 29 -p tcp -e 40 -c 2 -a 0 -i 3 -k AGT
+ -t 0.546396946 -s 29 -d -1 -p ack -e 40 -c 2 -a 0 -i 7 -k AGT 
- -t 0.546396946 -s 29 -d -1 -p ack -e 40 -c 2 -a 0 -i 7 -k AGT
h -t 0.546396946 -s 29 -d -1 -p ack -e 40 -c 2 -a 0 -i 7 -k AGT
+ -t 0.550020167 -s 29 -d -1 -p DSR -e 32 -c 2 -a 0 -i 8 -k RTR 
- -t 0.550020167 -s 29 -d -1 -p DSR -e 32 -c 2 -a 0 -i 8 -k RTR
h -t 0.550020167 -s 29 -d -1 -p DSR -e 32 -c 2 -a 0 -i 8 -k RTR
+ -t 0.551440374 -s 28 -d 29 -p DSR -e 48 -c 2 -a 0 -i 9 -k RTR 
- -t 0.551440374 -s 28 -d 29 -p DSR -e 48 -c 2 -a 0 -i 9 -k RTR
h -t 0.551440374 -s 28 -d 29 -p DSR -e 48 -c 2 -a 0 -i 9 -k RTR
+ -t 0.551440377 -s 30 -d 29 -p DSR -e 48 -c 2 -a 0 -i 10 -k RTR 
- -t 0.551440377 -s 30 -d 29 -p DSR -e 48 -c 2 -a 0 -i 10 -k RTR
h -t 0.551440377 -s 30 -d 29 -p DSR -e 48 -c 2 -a 0 -i 10 -k RTR
+ -t 0.551440500 -s 21 -d 29 -p DSR -e 48 -c 2 -a 0 -i 11 -k RTR 
- -t 0.551440500 -s 21 -d 29 -p DSR -e 48 -c 2 -a 0 -i 11 -k RTR
h -t 0.551440500 -s 21 -d 29 -p DSR -e 48 -c 2 -a 0 -i 11 -k RTR
+ -t 0.551440500 -s 37 -d 29 -p DSR -e 48 -c 2 -a 0 -i 12 -k RTR 
- -t 0.551440500 -s 37 -d 29 -p DSR -e 48 -c 2 -a 0 -i 12 -k RTR
h -t 0.551440500 -s 37 -d 29 -p DSR -e 48 -c 2 -a 0 -i 12 -k RTR
+ -t 0.551440559 -s 20 -d 29 -p DSR -e 48 -c 2 -a 0 -i 13 -k RTR 
- -t 0.551440559 -s 20 -d 29 -p DSR -e 48 -c 2 -a 0 -i 13 -k RTR
h -t 0.551440559 -s 20 -d 29 -p DSR -e 48 -c 2 -a 0 -i 13 -k RTR
+ -t 0.551440559 -s 36 -d 29 -p DSR -e 48 -c 2 -a 0 -i 14 -k RTR 
- -t 0.551440559 -s 36 -d 29 -p DSR -e 48 -c 2 -a 0 -i 14 -k RTR
h -t 0.551440559 -s 36 -d 29 -p DSR -e 48 -c 2 -a 0 -i 14 -k RTR
+ -t 0.551440584 -s 27 -d 29 -p DSR -e 48 -c 2 -a 0 -i 15 -k RTR 
- -t 0.551440584 -s 27 -d 29 -p DSR -e 48 -c 2 -a 0 -i 15 -k RTR
h -t 0.551440584 -s 27 -d 29 -p DSR -e 48 -c 2 -a 0 -i 15 -k RTR
+ -t 0.551440701 -s 19 -d 29 -p DSR -e 48 -c 2 -a 0 -i 16 -k RTR 
- -t 0.551440701 -s 19 -d 29 -p DSR -e 48 -c 2 -a 0 -i 16 -k RTR
h -t 0.551440701 -s 19 -d 29 -p DSR -e 48 -c 2 -a 0 -i 16 -k RTR
+ -t 0.551440701 -s 35 -d 29 -p DSR -e 48 -c 2 -a 0 -i 17 -k RTR 
- -t 0.551440701 -s 35 -d 29 -p DSR -e 48 -c 2 -a 0 -i 17 -k RTR
h -t 0.551440701 -s 35 -d 29 -p DSR -e 48 -c 2 -a 0 -i 17 -k RTR
+ -t 0.551440865 -s 12 -d 29 -p DSR -e 48 -c 2 -a 0 -i 19 -k RTR 
- -t 0.551440865 -s 12 -d 29 -p DSR -e 48 -c 2 -a 0 -i 19 -k RTR
h -t 0.551440865 -s 12 -d 29 -p DSR -e 48 -c 2 -a 0 -i 19 -k RTR
+ -t 0.551440874 -s 18 -d 29 -p DSR -e 48 -c 2 -a 0 -i 20 -k RTR 
- -t 0.551440874 -s 18 -d 29 -p DSR -e 48 -c 2 -a 0 -i 20 -k RTR
h -t 0.551440874 -s 18 -d 29 -p DSR -e 48 -c 2 -a 0 -i 20 -k RTR
+ -t 0.551440874 -s 34 -d 29 -p DSR -e 48 -c 2 -a 0 -i 21 -k RTR 
- -t 0.551440874 -s 34 -d 29 -p DSR -e 48 -c 2 -a 0 -i 21 -k RTR
h -t 0.551440874 -s 34 -d 29 -p DSR -e 48 -c 2 -a 0 -i 21 -k RTR
+ -t 0.551440953 -s 11 -d 29 -p DSR -e 48 -c 2 -a 0 -i 22 -k RTR 
- -t 0.551440953 -s 11 -d 29 -p DSR -e 48 -c 2 -a 0 -i 22 -k RTR
h -t 0.551440953 -s 11 -d 29 -p DSR -e 48 -c 2 -a 0 -i 22 -k RTR
+ -t 0.551441000 -s 25 -d 29 -p DSR -e 48 -c 2 -a 0 -i 23 -k RTR 
- -t 0.551441000 -s 25 -d 29 -p DSR -e 48 -c 2 -a 0 -i 23 -k RTR
h -t 0.551441000 -s 25 -d 29 -p DSR -e 48 -c 2 -a 0 -i 23 -k RTR
+ -t 0.553065007 -s 29 -d 30 -p ack -e 80 -c 2 -a 0 -i 7 -k RTR 
- -t 0.553065007 -s 29 -d 30 -p ack -e 80 -c 2 -a 0 -i 7 -k RTR
h -t 0.553065007 -s 29 -d 30 -p ack -e 80 -c 2 -a 0 -i 7 -k RTR
+ -t 0.557799554 -s 26 -d 29 -p DSR -e 44 -c 2 -a 0 -i 18 -k RTR 
- -t 0.557799554 -s 26 -d 29 -p DSR -e 44 -c 2 -a 0 -i 18 -k RTR
h -t 0.557799554 -s 26 -d 29 -p DSR -e 44 -c 2 -a 0 -i 18 -k RTR
+ -t 0.567991124 -s 26 -d 29 -p DSR -e 44 -c 2 -a 0 -i 24 -k RTR 
- -t 0.567991124 -s 26 -d 29 -p DSR -e 44 -c 2 -a 0 -i 24 -k RTR
h -t 0.567991124 -s 26 -d 29 -p DSR -e 44 -c 2 -a 0 -i 24 -k RTR
+ -t 0.568015711 -s 30 -d 26 -p ack -e 80 -c 2 -a 0 -i 7 -k RTR 
- -t 0.568015711 -s 30 -d 26 -p ack -e 80 -c 2 -a 0 -i 7 -k RTR
h -t 0.568015711 -s 30 -d 26 -p ack -e 80 -c 2 -a 0 -i 7 -k RTR
+ -t 0.596101155 -s 38 -d -1 -p tcp -e 40 -c 2 -a 0 -i 25 -k AGT 
- -t 0.596101155 -s 38 -d -1 -p tcp -e 40 -c 2 -a 0 -i 25 -k AGT
h -t 0.596101155 -s 38 -d -1 -p tcp -e 40 -c 2 -a 0 -i 25 -k AGT
+ -t 0.596101155 -s 38 -d 29 -p tcp -e 76 -c 2 -a 0 -i 25 -k RTR 
- -t 0.596101155 -s 38 -d 29 -p tcp -e 76 -c 2 -a 0 -i 25 -k RTR
h -t 0.596101155 -s 38 -d 29 -p tcp -e 76 -c 2 -a 0 -i 25 -k RTR
+ -t 0.596745556 -s 11 -d -1 -p tcp -e 40 -c 2 -a 0 -i 26 -k AGT 
- -t 0.596745556 -s 11 -d -1 -p tcp -e 40 -c 2 -a 0 -i 26 -k AGT
h -t 0.596745556 -s 11 -d -1 -p tcp -e 40 -c 2 -a 0 -i 26 -k AGT
+ -t 0.596745556 -s 11 -d 29 -p tcp -e 76 -c 2 -a 0 -i 26 -k RTR 
- -t 0.596745556 -s 11 -d 29 -p tcp -e 76 -c 2 -a 0 -i 26 -k RTR
h -t 0.596745556 -s 11 -d 29 -p tcp -e 76 -c 2 -a 0 -i 26 -k RTR
r -t 0.598150337 -s 29 -d 29 -p tcp -e 40 -c 2 -a 0 -i 25 -k AGT
+ -t 0.598150337 -s 29 -d -1 -p ack -e 40 -c 2 -a 0 -i 27 -k AGT 
- -t 0.598150337 -s 29 -d -1 -p ack -e 40 -c 2 -a 0 -i 27 -k AGT
h -t 0.598150337 -s 29 -d -1 -p ack -e 40 -c 2 -a 0 -i 27 -k AGT
r -t 0.600455482 -s 29 -d 29 -p tcp -e 40 -c 2 -a 0 -i 26 -k AGT
+ -t 0.600455482 -s 29 -d -1 -p ack -e 40 -c 2 -a 0 -i 29 -k AGT 
- -t 0.600455482 -s 29 -d -1 -p ack -e 40 -c 2 -a 0 -i 29 -k AGT
h -t 0.600455482 -s 29 -d -1 -p ack -e 40 -c 2 -a 0 -i 29 -k AGT
+ -t 0.600455482 -s 29 -d 11 -p ack -e 76 -c 2 -a 0 -i 29 -k RTR 
- -t 0.600455482 -s 29 -d 11 -p ack -e 76 -c 2 -a 0 -i 29 -k RTR
h -t 0.600455482 -s 29 -d 11 -p ack -e 76 -c 2 -a 0 -i 29 -k RTR
+ -t 0.602107830 -s 29 -d -1 -p DSR -e 32 -c 2 -a 0 -i 28 -k RTR 
- -t 0.602107830 -s 29 -d -1 -p DSR -e 32 -c 2 -a 0 -i 28 -k RTR
h -t 0.602107830 -s 29 -d -1 -p DSR -e 32 -c 2 -a 0 -i 28 -k RTR
+ -t 0.605113833 -s 28 -d 29 -p DSR -e 48 -c 2 -a 0 -i 30 -k RTR 
- -t 0.605113833 -s 28 -d 29 -p DSR -e 48 -c 2 -a 0 -i 30 -k RTR
h -t 0.605113833 -s 28 -d 29 -p DSR -e 48 -c 2 -a 0 -i 30 -k RTR
+ -t 0.605113836 -s 30 -d 29 -p DSR -e 48 -c 2 -a 0 -i 31 -k RTR 
- -t 0.605113836 -s 30 -d 29 -p DSR -e 48 -c 2 -a 0 -i 31 -k RTR
h -t 0.605113836 -s 30 -d 29 -p DSR -e 48 -c 2 -a 0 -i 31 -k RTR
+ -t 0.605113960 -s 21 -d 29 -p DSR -e 48 -c 2 -a 0 -i 32 -k RTR 
- -t 0.605113960 -s 21 -d 29 -p DSR -e 48 -c 2 -a 0 -i 32 -k RTR
h -t 0.605113960 -s 21 -d 29 -p DSR -e 48 -c 2 -a 0 -i 32 -k RTR
+ -t 0.605113960 -s 37 -d 29 -p DSR -e 48 -c 2 -a 0 -i 33 -k RTR 
- -t 0.605113960 -s 37 -d 29 -p DSR -e 48 -c 2 -a 0 -i 33 -k RTR
h -t 0.605113960 -s 37 -d 29 -p DSR -e 48 -c 2 -a 0 -i 33 -k RTR
+ -t 0.605114019 -s 20 -d 29 -p DSR -e 48 -c 2 -a 0 -i 34 -k RTR 
- -t 0.605114019 -s 20 -d 29 -p DSR -e 48 -c 2 -a 0 -i 34 -k RTR
h -t 0.605114019 -s 20 -d 29 -p DSR -e 48 -c 2 -a 0 -i 34 -k RTR
+ -t 0.605114019 -s 36 -d 29 -p DSR -e 48 -c 2 -a 0 -i 35 -k RTR 
- -t 0.605114019 -s 36 -d 29 -p DSR -e 48 -c 2 -a 0 -i 35 -k RTR
h -t 0.605114019 -s 36 -d 29 -p DSR -e 48 -c 2 -a 0 -i 35 -k RTR
+ -t 0.605114020 -s 22 -d 29 -p DSR -e 48 -c 2 -a 0 -i 36 -k RTR 
- -t 0.605114020 -s 22 -d 29 -p DSR -e 48 -c 2 -a 0 -i 36 -k RTR
h -t 0.605114020 -s 22 -d 29 -p DSR -e 48 -c 2 -a 0 -i 36 -k RTR
+ -t 0.605114043 -s 27 -d 29 -p DSR -e 48 -c 2 -a 0 -i 38 -k RTR 
- -t 0.605114043 -s 27 -d 29 -p DSR -e 48 -c 2 -a 0 -i 38 -k RTR
h -t 0.605114043 -s 27 -d 29 -p DSR -e 48 -c 2 -a 0 -i 38 -k RTR
+ -t 0.605114043 -s 31 -d 29 -p DSR -e 48 -c 2 -a 0 -i 39 -k RTR 
- -t 0.605114043 -s 31 -d 29 -p DSR -e 48 -c 2 -a 0 -i 39 -k RTR
h -t 0.605114043 -s 31 -d 29 -p DSR -e 48 -c 2 -a 0 -i 39 -k RTR
+ -t 0.605114160 -s 23 -d 29 -p DSR -e 48 -c 2 -a 0 -i 40 -k RTR 
- -t 0.605114160 -s 23 -d 29 -p DSR -e 48 -c 2 -a 0 -i 40 -k RTR
h -t 0.605114160 -s 23 -d 29 -p DSR -e 48 -c 2 -a 0 -i 40 -k RTR
+ -t 0.605114160 -s 35 -d 29 -p DSR -e 48 -c 2 -a 0 -i 41 -k RTR 
- -t 0.605114160 -s 35 -d 29 -p DSR -e 48 -c 2 -a 0 -i 41 -k RTR
h -t 0.605114160 -s 35 -d 29 -p DSR -e 48 -c 2 -a 0 -i 41 -k RTR
+ -t 0.605114160 -s 39 -d 29 -p DSR -e 48 -c 2 -a 0 -i 42 -k RTR 
- -t 0.605114160 -s 39 -d 29 -p DSR -e 48 -c 2 -a 0 -i 42 -k RTR
h -t 0.605114160 -s 39 -d 29 -p DSR -e 48 -c 2 -a 0 -i 42 -k RTR
+ -t 0.605114333 -s 34 -d 29 -p DSR -e 48 -c 2 -a 0 -i 43 -k RTR 
- -t 0.605114333 -s 34 -d 29 -p DSR -e 48 -c 2 -a 0 -i 43 -k RTR
h -t 0.605114333 -s 34 -d 29 -p DSR -e 48 -c 2 -a 0 -i 43 -k RTR
+ -t 0.606859195 -s 29 -d 20 -p ack -e 80 -c 2 -a 0 -i 27 -k RTR 
- -t 0.606859195 -s 29 -d 20 -p ack -e 80 -c 2 -a 0 -i 27 -k RTR
h -t 0.606859195 -s 29 -d 20 -p ack -e 80 -c 2 -a 0 -i 27 -k RTR
+ -t 0.614628742 -s 38 -d 29 -p DSR -e 44 -c 2 -a 0 -i 37 -k RTR 
- -t 0.614628742 -s 38 -d 29 -p DSR -e 44 -c 2 -a 0 -i 37 -k RTR
h -t 0.614628742 -s 38 -d 29 -p DSR -e 44 -c 2 -a 0 -i 37 -k RTR
r -t 0.635357585 -s 11 -d 11 -p ack -e 40 -c 2 -a 0 -i 29 -k AGT
+ -t 0.635357585 -s 11 -d -1 -p tcp -e 1040 -c 2 -a 0 -i 44 -k AGT 
- -t 0.635357585 -s 11 -d -1 -p tcp -e 1040 -c 2 -a 0 -i 44 -k AGT
h -t 0.635357585 -s 11 -d -1 -p tcp -e 1040 -c 2 -a 0 -i 44 -k AGT
+ -t 0.635357585 -s 11 -d 29 -p tcp -e 1076 -c 2 -a 0 -i 44 -k RTR 
- -t 0.635357585 -s 11 -d 29 -p tcp -e 1076 -c 2 -a 0 -i 44 -k RTR
h -t 0.635357585 -s 11 -d 29 -p tcp -e 1076 -c 2 -a 0 -i 44 -k RTR
+ -t 0.641788477 -s 10 -d -1 -p tcp -e 40 -c 2 -a 0 -i 45 -k AGT 
- -t 0.641788477 -s 10 -d -1 -p tcp -e 40 -c 2 -a 0 -i 45 -k AGT
h -t 0.641788477 -s 10 -d -1 -p tcp -e 40 -c 2 -a 0 -i 45 -k AGT
+ -t 0.641788477 -s 10 -d 13 -p tcp -e 80 -c 2 -a 0 -i 45 -k RTR 
- -t 0.641788477 -s 10 -d 13 -p tcp -e 80 -c 2 -a 0 -i 45 -k RTR
h -t 0.641788477 -s 10 -d 13 -p tcp -e 80 -c 2 -a 0 -i 45 -k RTR
+ -t 0.645779347 -s 38 -d -1 -p tcp -e 40 -c 2 -a 0 -i 46 -k AGT 
- -t 0.645779347 -s 38 -d -1 -p tcp -e 40 -c 2 -a 0 -i 46 -k AGT
h -t 0.645779347 -s 38 -d -1 -p tcp -e 40 -c 2 -a 0 -i 46 -k AGT
+ -t 0.645779347 -s 38 -d 29 -p tcp -e 76 -c 2 -a 0 -i 46 -k RTR 
- -t 0.645779347 -s 38 -d 29 -p tcp -e 76 -c 2 -a 0 -i 46 -k RTR
h -t 0.645779347 -s 38 -d 29 -p tcp -e 76 -c 2 -a 0 -i 46 -k RTR
r -t 0.648671047 -s 29 -d 29 -p tcp -e 1040 -c 2 -a 0 -i 44 -k AGT
+ -t 0.648671047 -s 29 -d -1 -p ack -e 40 -c 2 -a 0 -i 47 -k AGT 
- -t 0.648671047 -s 29 -d -1 -p ack -e 40 -c 2 -a 0 -i 47 -k AGT
h -t 0.648671047 -s 29 -d -1 -p ack -e 40 -c 2 -a 0 -i 47 -k AGT
+ -t 0.648671047 -s 29 -d 11 -p ack -e 76 -c 2 -a 0 -i 47 -k RTR 
- -t 0.648671047 -s 29 -d 11 -p ack -e 76 -c 2 -a 0 -i 47 -k RTR
h -t 0.648671047 -s 29 -d 11 -p ack -e 76 -c 2 -a 0 -i 47 -k RTR
+ -t 0.656647675 -s 13 -d 29 -p tcp -e 80 -c 2 -a 0 -i 45 -k RTR 
- -t 0.656647675 -s 13 -d 29 -p tcp -e 80 -c 2 -a 0 -i 45 -k RTR
h -t 0.656647675 -s 13 -d 29 -p tcp -e 80 -c 2 -a 0 -i 45 -k RTR
r -t 0.658853675 -s 29 -d 29 -p tcp -e 40 -c 2 -a 0 -i 45 -k AGT
+ -t 0.658853675 -s 29 -d -1 -p ack -e 40 -c 2 -a 0 -i 48 -k AGT 
- -t 0.658853675 -s 29 -d -1 -p ack -e 40 -c 2 -a 0 -i 48 -k AGT
h -t 0.658853675 -s 29 -d -1 -p ack -e 40 -c 2 -a 0 -i 48 -k AGT
+ -t 0.661254689 -s 29 -d -1 -p DSR -e 32 -c 2 -a 0 -i 49 -k RTR 
- -t 0.661254689 -s 29 -d -1 -p DSR -e 32 -c 2 -a 0 -i 49 -k RTR
h -t 0.661254689 -s 29 -d -1 -p DSR -e 32 -c 2 -a 0 -i 49 -k RTR
r -t 0.661417212 -s 29 -d 29 -p tcp -e 40 -c 2 -a 0 -i 46 -k AGT
+ -t 0.661417212 -s 29 -d -1 -p ack -e 40 -c 2 -a 0 -i 50 -k AGT 
- -t 0.661417212 -s 29 -d -1 -p ack -e 40 -c 2 -a 0 -i 50 -k AGT
h -t 0.661417212 -s 29 -d -1 -p ack -e 40 -c 2 -a 0 -i 50 -k AGT
+ -t 0.661417212 -s 29 -d 38 -p ack -e 76 -c 2 -a 0 -i 50 -k RTR 
- -t 0.661417212 -s 29 -d 38 -p ack -e 76 -c 2 -a 0 -i 50 -k RTR
h -t 0.661417212 -s 29 -d 38 -p ack -e 76 -c 2 -a 0 -i 50 -k RTR
r -t 0.663651570 -s 11 -d 11 -p ack -e 40 -c 2 -a 0 -i 47 -k AGT
+ -t 0.665236563 -s 28 -d 29 -p DSR -e 48 -c 2 -a 0 -i 51 -k RTR 
- -t 0.665236563 -s 28 -d 29 -p DSR -e 48 -c 2 -a 0 -i 51 -k RTR
h -t 0.665236563 -s 28 -d 29 -p DSR -e 48 -c 2 -a 0 -i 51 -k RTR
+ -t 0.665236690 -s 21 -d 29 -p DSR -e 48 -c 2 -a 0 -i 52 -k RTR 
- -t 0.665236690 -s 21 -d 29 -p DSR -e 48 -c 2 -a 0 -i 52 -k RTR
h -t 0.665236690 -s 21 -d 29 -p DSR -e 48 -c 2 -a 0 -i 52 -k RTR
+ -t 0.665236749 -s 20 -d 29 -p DSR -e 48 -c 2 -a 0 -i 53 -k RTR 
- -t 0.665236749 -s 20 -d 29 -p DSR -e 48 -c 2 -a 0 -i 53 -k RTR
h -t 0.665236749 -s 20 -d 29 -p DSR -e 48 -c 2 -a 0 -i 53 -k RTR
+ -t 0.665236773 -s 27 -d 29 -p DSR -e 48 -c 2 -a 0 -i 54 -k RTR 
- -t 0.665236773 -s 27 -d 29 -p DSR -e 48 -c 2 -a 0 -i 54 -k RTR
h -t 0.665236773 -s 27 -d 29 -p DSR -e 48 -c 2 -a 0 -i 54 -k RTR
+ -t 0.665236890 -s 19 -d 29 -p DSR -e 48 -c 2 -a 0 -i 55 -k RTR 
- -t 0.665236890 -s 19 -d 29 -p DSR -e 48 -c 2 -a 0 -i 55 -k RTR
h -t 0.665236890 -s 19 -d 29 -p DSR -e 48 -c 2 -a 0 -i 55 -k RTR
+ -t 0.665236980 -s 26 -d 29 -p DSR -e 48 -c 2 -a 0 -i 56 -k RTR 
- -t 0.665236980 -s 26 -d 29 -p DSR -e 48 -c 2 -a 0 -i 56 -k RTR
h -t 0.665236980 -s 26 -d 29 -p DSR -e 48 -c 2 -a 0 -i 56 -k RTR
+ -t 0.665237055 -s 12 -d 29 -p DSR -e 48 -c 2 -a 0 -i 57 -k RTR 
- -t 0.665237055 -s 12 -d 29 -p DSR -e 48 -c 2 -a 0 -i 57 -k RTR
h -t 0.665237055 -s 12 -d 29 -p DSR -e 48 -c 2 -a 0 -i 57 -k RTR
+ -t 0.665237056 -s 14 -d 29 -p DSR -e 48 -c 2 -a 0 -i 58 -k RTR 
- -t 0.665237056 -s 14 -d 29 -p DSR -e 48 -c 2 -a 0 -i 58 -k RTR
h -t 0.665237056 -s 14 -d 29 -p DSR -e 48 -c 2 -a 0 -i 58 -k RTR
+ -t 0.665237063 -s 18 -d 29 -p DSR -e 48 -c 2 -a 0 -i 59 -k RTR 
- -t 0.665237063 -s 18 -d 29 -p DSR -e 48 -c 2 -a 0 -i 59 -k RTR
h -t 0.665237063 -s 18 -d 29 -p DSR -e 48 -c 2 -a 0 -i 59 -k RTR
+ -t 0.665237143 -s 11 -d 29 -p DSR -e 48 -c 2 -a 0 -i 60 -k RTR 
- -t 0.665237143 -s 11 -d 29 -p DSR -e 48 -c 2 -a 0 -i 60 -k RTR
h -t 0.665237143 -s 11 -d 29 -p DSR -e 48 -c 2 -a 0 -i 60 -k RTR
+ -t 0.665237190 -s 25 -d 29 -p DSR -e 48 -c 2 -a 0 -i 61 -k RTR 
- -t 0.665237190 -s 25 -d 29 -p DSR -e 48 -c 2 -a 0 -i 61 -k RTR
h -t 0.665237190 -s 25 -d 29 -p DSR -e 48 -c 2 -a 0 -i 61 -k RTR
+ -t 0.666923501 -s 29 -d 11 -p ack -e 80 -c 2 -a 0 -i 48 -k RTR 
- -t 0.666923501 -s 29 -d 11 -p ack -e 80 -c 2 -a 0 -i 48 -k RTR
h -t 0.666923501 -s 29 -d 11 -p ack -e 80 -c 2 -a 0 -i 48 -k RTR
+ -t 0.691398058 -s 38 -d 29 -p DSR -e 44 -c 2 -a 0 -i 62 -k RTR 
- -t 0.691398058 -s 38 -d 29 -p DSR -e 44 -c 2 -a 0 -i 62 -k RTR
h -t 0.691398058 -s 38 -d 29 -p DSR -e 44 -c 2 -a 0 -i 62 -k RTR
+ -t 0.691423056 -s 20 -d 38 -p ack -e 80 -c 2 -a 0 -i 27 -k RTR 
- -t 0.691423056 -s 20 -d 38 -p ack -e 80 -c 2 -a 0 -i 27 -k RTR
h -t 0.691423056 -s 20 -d 38 -p ack -e 80 -c 2 -a 0 -i 27 -k RTR
+ -t 0.696705002 -s 37 -d -1 -p tcp -e 40 -c 2 -a 0 -i 63 -k AGT 
- -t 0.696705002 -s 37 -d -1 -p tcp -e 40 -c 2 -a 0 -i 63 -k AGT
h -t 0.696705002 -s 37 -d -1 -p tcp -e 40 -c 2 -a 0 -i 63 -k AGT
+ -t 0.696705002 -s 37 -d 29 -p tcp -e 76 -c 2 -a 0 -i 63 -k RTR 
- -t 0.696705002 -s 37 -d 29 -p tcp -e 76 -c 2 -a 0 -i 63 -k RTR
h -t 0.696705002 -s 37 -d 29 -p tcp -e 76 -c 2 -a 0 -i 63 -k RTR
+ -t 0.696766167 -s 11 -d 10 -p ack -e 80 -c 2 -a 0 -i 48 -k RTR 
- -t 0.696766167 -s 11 -d 10 -p ack -e 80 -c 2 -a 0 -i 48 -k RTR
h -t 0.696766167 -s 11 -d 10 -p ack -e 80 -c 2 -a 0 -i 48 -k RTR
r -t 0.699938287 -s 29 -d 29 -p tcp -e 40 -c 2 -a 0 -i 63 -k AGT
+ -t 0.699938287 -s 29 -d -1 -p ack -e 40 -c 2 -a 0 -i 64 -k AGT 
- -t 0.699938287 -s 29 -d -1 -p ack -e 40 -c 2 -a 0 -i 64 -k AGT
h -t 0.699938287 -s 29 -d -1 -p ack -e 40 -c 2 -a 0 -i 64 -k AGT
+ -t 0.699938287 -s 29 -d 37 -p ack -e 76 -c 2 -a 0 -i 64 -k RTR 
- -t 0.699938287 -s 29 -d 37 -p ack -e 76 -c 2 -a 0 -i 64 -k RTR
h -t 0.699938287 -s 29 -d 37 -p ack -e 76 -c 2 -a 0 -i 64 -k RTR
r -t 0.702153657 -s 10 -d 10 -p ack -e 40 -c 2 -a 0 -i 48 -k AGT
+ -t 0.702153657 -s 10 -d -1 -p tcp -e 1040 -c 2 -a 0 -i 65 -k AGT 
- -t 0.702153657 -s 10 -d -1 -p tcp -e 1040 -c 2 -a 0 -i 65 -k AGT
h -t 0.702153657 -s 10 -d -1 -p tcp -e 1040 -c 2 -a 0 -i 65 -k AGT
+ -t 0.702153657 -s 10 -d 13 -p tcp -e 1080 -c 2 -a 0 -i 65 -k RTR 
- -t 0.702153657 -s 10 -d 13 -p tcp -e 1080 -c 2 -a 0 -i 65 -k RTR
h -t 0.702153657 -s 10 -d 13 -p tcp -e 1080 -c 2 -a 0 -i 65 -k RTR
+ -t 0.712699527 -s 13 -d 29 -p tcp -e 1080 -c 2 -a 0 -i 65 -k RTR 
- -t 0.712699527 -s 13 -d 29 -p tcp -e 1080 -c 2 -a 0 -i 65 -k RTR
h -t 0.712699527 -s 13 -d 29 -p tcp -e 1080 -c 2 -a 0 -i 65 -k RTR
r -t 0.722905527 -s 29 -d 29 -p tcp -e 1040 -c 2 -a 0 -i 65 -k AGT
+ -t 0.722905527 -s 29 -d -1 -p ack -e 40 -c 2 -a 0 -i 66 -k AGT 
- -t 0.722905527 -s 29 -d -1 -p ack -e 40 -c 2 -a 0 -i 66 -k AGT
h -t 0.722905527 -s 29 -d -1 -p ack -e 40 -c 2 -a 0 -i 66 -k AGT
+ -t 0.722905527 -s 29 -d 11 -p ack -e 80 -c 2 -a 0 -i 66 -k RTR 
- -t 0.722905527 -s 29 -d 11 -p ack -e 80 -c 2 -a 0 -i 66 -k RTR
h -t 0.722905527 -s 29 -d 11 -p ack -e 80 -c 2 -a 0 -i 66 -k RTR
+ -t 0.728930991 -s 11 -d 10 -p ack -e 80 -c 2 -a 0 -i 66 -k RTR 
- -t 0.728930991 -s 11 -d 10 -p ack -e 80 -c 2 -a 0 -i 66 -k RTR
h -t 0.728930991 -s 11 -d 10 -p ack -e 80 -c 2 -a 0 -i 66 -k RTR
r -t 0.731635611 -s 10 -d 10 -p ack -e 40 -c 2 -a 0 -i 66 -k AGT
+ -t 0.735099374 -s 33 -d -1 -p tcp -e 40 -c 2 -a 0 -i 67 -k AGT 
- -t 0.735099374 -s 33 -d -1 -p tcp -e 40 -c 2 -a 0 -i 67 -k AGT
h -t 0.735099374 -s 33 -d -1 -p tcp -e 40 -c 2 -a 0 -i 67 -k AGT
+ -t 0.735099374 -s 33 -d 26 -p tcp -e 80 -c 2 -a 0 -i 67 -k RTR 
- -t 0.735099374 -s 33 -d 26 -p tcp -e 80 -c 2 -a 0 -i 67 -k RTR
h -t 0.735099374 -s 33 -d 26 -p tcp -e 80 -c 2 -a 0 -i 67 -k RTR
r -t 0.736096845 -s 38 -d 38 -p ack -e 40 -c 2 -a 0 -i 27 -k AGT
+ -t 0.736096845 -s 38 -d -1 -p tcp -e 1040 -c 2 -a 0 -i 68 -k AGT 
- -t 0.736096845 -s 38 -d -1 -p tcp -e 1040 -c 2 -a 0 -i 68 -k AGT
h -t 0.736096845 -s 38 -d -1 -p tcp -e 1040 -c 2 -a 0 -i 68 -k AGT
+ -t 0.736096845 -s 38 -d 29 -p tcp -e 1076 -c 2 -a 0 -i 68 -k RTR 
- -t 0.736096845 -s 38 -d 29 -p tcp -e 1076 -c 2 -a 0 -i 68 -k RTR
h -t 0.736096845 -s 38 -d 29 -p tcp -e 1076 -c 2 -a 0 -i 68 -k RTR
r -t 0.738250421 -s 38 -d 38 -p ack -e 40 -c 2 -a 0 -i 50 -k AGT
+ -t 0.738250421 -s 38 -d -1 -p tcp -e 1040 -c 2 -a 0 -i 69 -k AGT 
- -t 0.738250421 -s 38 -d -1 -p tcp -e 1040 -c 2 -a 0 -i 69 -k AGT
h -t 0.738250421 -s 38 -d -1 -p tcp -e 1040 -c 2 -a 0 -i 69 -k AGT
+ -t 0.738250421 -s 38 -d 29 -p tcp -e 1060 -c 2 -a 0 -i 69 -k RTR 
- -t 0.738250421 -s 38 -d 29 -p tcp -e 1060 -c 2 -a 0 -i 69 -k RTR
h -t 0.738250421 -s 38 -d 29 -p tcp -e 1060 -c 2 -a 0 -i 69 -k RTR
r -t 0.748863603 -s 29 -d 29 -p tcp -e 1040 -c 2 -a 0 -i 68 -k AGT
+ -t 0.748863603 -s 29 -d -1 -p ack -e 40 -c 2 -a 0 -i 70 -k AGT 
- -t 0.748863603 -s 29 -d -1 -p ack -e 40 -c 2 -a 0 -i 70 -k AGT
h -t 0.748863603 -s 29 -d -1 -p ack -e 40 -c 2 -a 0 -i 70 -k AGT
+ -t 0.748863603 -s 29 -d 38 -p ack -e 76 -c 2 -a 0 -i 70 -k RTR 
- -t 0.748863603 -s 29 -d 38 -p ack -e 76 -c 2 -a 0 -i 70 -k RTR
h -t 0.748863603 -s 29 -d 38 -p ack -e 76 -c 2 -a 0 -i 70 -k RTR
r -t 0.759029179 -s 29 -d 29 -p tcp -e 1040 -c 2 -a 0 -i 69 -k AGT
+ -t 0.759029179 -s 29 -d -1 -p ack -e 40 -c 2 -a 0 -i 71 -k AGT 
- -t 0.759029179 -s 29 -d -1 -p ack -e 40 -c 2 -a 0 -i 71 -k AGT
h -t 0.759029179 -s 29 -d -1 -p ack -e 40 -c 2 -a 0 -i 71 -k AGT
+ -t 0.759029179 -s 29 -d 38 -p ack -e 76 -c 2 -a 0 -i 71 -k RTR 
- -t 0.759029179 -s 29 -d 38 -p ack -e 76 -c 2 -a 0 -i 71 -k RTR
h -t 0.759029179 -s 29 -d 38 -p ack -e 76 -c 2 -a 0 -i 71 -k RTR
r -t 0.761302361 -s 38 -d 38 -p ack -e 40 -c 2 -a 0 -i 70 -k AGT
r -t 0.763615937 -s 38 -d 38 -p ack -e 40 -c 2 -a 0 -i 71 -k AGT
+ -t 0.769658738 -s 26 -d 29 -p tcp -e 80 -c 2 -a 0 -i 67 -k RTR 
- -t 0.769658738 -s 26 -d 29 -p tcp -e 80 -c 2 -a 0 -i 67 -k RTR
h -t 0.769658738 -s 26 -d 29 -p tcp -e 80 -c 2 -a 0 -i 67 -k RTR
r -t 0.771824608 -s 29 -d 29 -p tcp -e 40 -c 2 -a 0 -i 67 -k AGT
+ -t 0.771824608 -s 29 -d -1 -p ack -e 40 -c 2 -a 0 -i 72 -k AGT 
- -t 0.771824608 -s 29 -d -1 -p ack -e 40 -c 2 -a 0 -i 72 -k AGT
h -t 0.771824608 -s 29 -d -1 -p ack -e 40 -c 2 -a 0 -i 72 -k AGT
+ -t 0.777631474 -s 29 -d -1 -p DSR -e 32 -c 2 -a 0 -i 73 -k RTR 
- -t 0.777631474 -s 29 -d -1 -p DSR -e 32 -c 2 -a 0 -i 73 -k RTR
h -t 0.777631474 -s 29 -d -1 -p DSR -e 32 -c 2 -a 0 -i 73 -k RTR
+ -t 0.778651680 -s 28 -d 29 -p DSR -e 48 -c 2 -a 0 -i 74 -k RTR 
- -t 0.778651680 -s 28 -d 29 -p DSR -e 48 -c 2 -a 0 -i 74 -k RTR
h -t 0.778651680 -s 28 -d 29 -p DSR -e 48 -c 2 -a 0 -i 74 -k RTR
+ -t 0.778651807 -s 37 -d 29 -p DSR -e 48 -c 2 -a 0 -i 75 -k RTR 
- -t 0.778651807 -s 37 -d 29 -p DSR -e 48 -c 2 -a 0 -i 75 -k RTR
h -t 0.778651807 -s 37 -d 29 -p DSR -e 48 -c 2 -a 0 -i 75 -k RTR
+ -t 0.778651866 -s 36 -d 29 -p DSR -e 48 -c 2 -a 0 -i 76 -k RTR 
- -t 0.778651866 -s 36 -d 29 -p DSR -e 48 -c 2 -a 0 -i 76 -k RTR
h -t 0.778651866 -s 36 -d 29 -p DSR -e 48 -c 2 -a 0 -i 76 -k RTR
+ -t 0.778651890 -s 27 -d 29 -p DSR -e 48 -c 2 -a 0 -i 77 -k RTR 
- -t 0.778651890 -s 27 -d 29 -p DSR -e 48 -c 2 -a 0 -i 77 -k RTR
h -t 0.778651890 -s 27 -d 29 -p DSR -e 48 -c 2 -a 0 -i 77 -k RTR
+ -t 0.778652007 -s 19 -d 29 -p DSR -e 48 -c 2 -a 0 -i 78 -k RTR 
- -t 0.778652007 -s 19 -d 29 -p DSR -e 48 -c 2 -a 0 -i 78 -k RTR
h -t 0.778652007 -s 19 -d 29 -p DSR -e 48 -c 2 -a 0 -i 78 -k RTR
+ -t 0.778652007 -s 35 -d 29 -p DSR -e 48 -c 2 -a 0 -i 79 -k RTR 
- -t 0.778652007 -s 35 -d 29 -p DSR -e 48 -c 2 -a 0 -i 79 -k RTR
h -t 0.778652007 -s 35 -d 29 -p DSR -e 48 -c 2 -a 0 -i 79 -k RTR
+ -t 0.778652181 -s 18 -d 29 -p DSR -e 48 -c 2 -a 0 -i 80 -k RTR 
- -t 0.778652181 -s 18 -d 29 -p DSR -e 48 -c 2 -a 0 -i 80 -k RTR
h -t 0.778652181 -s 18 -d 29 -p DSR -e 48 -c 2 -a 0 -i 80 -k RTR
+ -t 0.778652181 -s 34 -d 29 -p DSR -e 48 -c 2 -a 0 -i 81 -k RTR 
- -t 0.778652181 -s 34 -d 29 -p DSR -e 48 -c 2 -a 0 -i 81 -k RTR
h -t 0.778652181 -s 34 -d 29 -p DSR -e 48 -c 2 -a 0 -i 81 -k RTR
+ -t 0.778652307 -s 25 -d 29 -p DSR -e 48 -c 2 -a 0 -i 82 -k RTR 
- -t 0.778652307 -s 25 -d 29 -p DSR -e 48 -c 2 -a 0 -i 82 -k RTR
h -t 0.778652307 -s 25 -d 29 -p DSR -e 48 -c 2 -a 0 -i 82 -k RTR
+ -t 0.779888934 -s 38 -d -1 -p tcp -e 1040 -c 2 -a 0 -i 83 -k AGT 
- -t 0.779888934 -s 38 -d -1 -p tcp -e 1040 -c 2 -a 0 -i 83 -k AGT
h -t 0.779888934 -s 38 -d -1 -p tcp -e 1040 -c 2 -a 0 -i 83 -k AGT
+ -t 0.779888934 -s 38 -d 29 -p tcp -e 1060 -c 2 -a 0 -i 83 -k RTR 
- -t 0.779888934 -s 38 -d 29 -p tcp -e 1060 -c 2 -a 0 -i 83 -k RTR
h -t 0.779888934 -s 38 -d 29 -p tcp -e 1060 -c 2 -a 0 -i 83 -k RTR
+ -t 0.780398807 -s 29 -d 25 -p ack -e 80 -c 2 -a 0 -i 72 -k RTR 
- -t 0.780398807 -s 29 -d 25 -p ack -e 80 -c 2 -a 0 -i 72 -k RTR
h -t 0.780398807 -s 29 -d 25 -p ack -e 80 -c 2 -a 0 -i 72 -k RTR
+ -t 0.796968525 -s 6 -d -1 -p tcp -e 40 -c 2 -a 0 -i 84 -k AGT 
- -t 0.796968525 -s 6 -d -1 -p tcp -e 40 -c 2 -a 0 -i 84 -k AGT
h -t 0.796968525 -s 6 -d -1 -p tcp -e 40 -c 2 -a 0 -i 84 -k AGT
+ -t 0.796968525 -s 6 -d 13 -p tcp -e 80 -c 2 -a 0 -i 84 -k RTR 
- -t 0.796968525 -s 6 -d 13 -p tcp -e 80 -c 2 -a 0 -i 84 -k RTR
h -t 0.796968525 -s 6 -d 13 -p tcp -e 80 -c 2 -a 0 -i 84 -k RTR
r -t 0.805443830 -s 29 -d 29 -p tcp -e 1040 -c 2 -a 0 -i 83 -k AGT
+ -t 0.805443830 -s 29 -d -1 -p ack -e 40 -c 2 -a 0 -i 85 -k AGT 
- -t 0.805443830 -s 29 -d -1 -p ack -e 40 -c 2 -a 0 -i 85 -k AGT
h -t 0.805443830 -s 29 -d -1 -p ack -e 40 -c 2 -a 0 -i 85 -k AGT
+ -t 0.805443830 -s 29 -d 38 -p ack -e 60 -c 2 -a 0 -i 85 -k RTR 
- -t 0.805443830 -s 29 -d 38 -p ack -e 60 -c 2 -a 0 -i 85 -k RTR
h -t 0.805443830 -s 29 -d 38 -p ack -e 60 -c 2 -a 0 -i 85 -k RTR
r -t 0.809498678 -s 38 -d 38 -p ack -e 40 -c 2 -a 0 -i 85 -k AGT
+ -t 0.810086422 -s 28 -d -1 -p tcp -e 40 -c 2 -a 0 -i 86 -k AGT 
- -t 0.810086422 -s 28 -d -1 -p tcp -e 40 -c 2 -a 0 -i 86 -k AGT
h -t 0.810086422 -s 28 -d -1 -p tcp -e 40 -c 2 -a 0 -i 86 -k AGT
+ -t 0.810086422 -s 28 -d 29 -p tcp -e 76 -c 2 -a 0 -i 86 -k RTR 
- -t 0.810086422 -s 28 -d 29 -p tcp -e 76 -c 2 -a 0 -i 86 -k RTR
h -t 0.810086422 -s 28 -d 29 -p tcp -e 76 -c 2 -a 0 -i 86 -k RTR
+ -t 0.815061769 -s 13 -d 29 -p tcp -e 80 -c 2 -a 0 -i 84 -k RTR 
- -t 0.815061769 -s 13 -d 29 -p tcp -e 80 -c 2 -a 0 -i 84 -k RTR
h -t 0.815061769 -s 13 -d 29 -p tcp -e 80 -c 2 -a 0 -i 84 -k RTR
r -t 0.817527769 -s 29 -d 29 -p tcp -e 40 -c 2 -a 0 -i 84 -k AGT
+ -t 0.817527769 -s 29 -d -1 -p ack -e 40 -c 2 -a 0 -i 87 -k AGT 
- -t 0.817527769 -s 29 -d -1 -p ack -e 40 -c 2 -a 0 -i 87 -k AGT
h -t 0.817527769 -s 29 -d -1 -p ack -e 40 -c 2 -a 0 -i 87 -k AGT
r -t 0.819700596 -s 29 -d 29 -p tcp -e 40 -c 2 -a 0 -i 86 -k AGT
+ -t 0.819700596 -s 29 -d -1 -p ack -e 40 -c 2 -a 0 -i 89 -k AGT 
- -t 0.819700596 -s 29 -d -1 -p ack -e 40 -c 2 -a 0 -i 89 -k AGT
h -t 0.819700596 -s 29 -d -1 -p ack -e 40 -c 2 -a 0 -i 89 -k AGT
+ -t 0.819700596 -s 29 -d 28 -p ack -e 76 -c 2 -a 0 -i 89 -k RTR 
- -t 0.819700596 -s 29 -d 28 -p ack -e 76 -c 2 -a 0 -i 89 -k RTR
h -t 0.819700596 -s 29 -d 28 -p ack -e 76 -c 2 -a 0 -i 89 -k RTR
+ -t 0.820411349 -s 29 -d -1 -p DSR -e 32 -c 2 -a 0 -i 88 -k RTR 
- -t 0.820411349 -s 29 -d -1 -p DSR -e 32 -c 2 -a 0 -i 88 -k RTR
h -t 0.820411349 -s 29 -d -1 -p DSR -e 32 -c 2 -a 0 -i 88 -k RTR
+ -t 0.822422929 -s 21 -d 29 -p DSR -e 48 -c 2 -a 0 -i 90 -k RTR 
- -t 0.822422929 -s 21 -d 29 -p DSR -e 48 -c 2 -a 0 -i 90 -k RTR
h -t 0.822422929 -s 21 -d 29 -p DSR -e 48 -c 2 -a 0 -i 90 -k RTR
+ -t 0.822422988 -s 20 -d 29 -p DSR -e 48 -c 2 -a 0 -i 91 -k RTR 
- -t 0.822422988 -s 20 -d 29 -p DSR -e 48 -c 2 -a 0 -i 91 -k RTR
h -t 0.822422988 -s 20 -d 29 -p DSR -e 48 -c 2 -a 0 -i 91 -k RTR
+ -t 0.822422990 -s 22 -d 29 -p DSR -e 48 -c 2 -a 0 -i 92 -k RTR 