n -t * -s 0  -x 1 -y 1 -Z 0 -z 20  -v circle -c green
n -t * -s 1  -x 1 -y 63 -Z 0 -z 20  -v circle -c green
n -t * -s 2  -x 1 -y 126 -Z 0 -z 20  -v circle -c green
n -t * -s 3  -x 1 -y 188 -Z 0 -z 20  -v circle -c green
n -t * -s 4  -x 1 -y 251 -Z 0 -z 20  -v circle -c green
n -t * -s 5  -x 1 -y 313 -Z 0 -z 20  -v circle -c green
n -t * -s 6  -x 1 -y 376 -Z 0 -z 20  -v circle -c green
n -t * -s 7  -x 1 -y 438 -Z 0 -z 20  -v circle -c green
n -t * -s 8  -x 101 -y 1 -Z 0 -z 20  -v circle -c green
n -t * -s 9  -x 101 -y 63 -Z 0 -z 20  -v circle -c green
n -t * -s 10  -x 101 -y 126 -Z 0 -z 20  -v circle -c green
n -t * -s 11  -x 101 -y 188 -Z 0 -z 20  -v circle -c green
n -t * -s 12  -x 101 -y 251 -Z 0 -z 20  -v circle -c green
n -t * -s 13  -x 101 -y 313 -Z 0 -z 20  -v circle -c green
n -t * -s 14  -x 101 -y 376 -Z 0 -z 20  -v circle -c green
n -t * -s 15  -x 101 -y 438 -Z 0 -z 20  -v circle -c green
n -t * -s 16  -x 201 -y 1 -Z 0 -z 20  -v circle -c green
n -t * -s 17  -x 201 -y 63 -Z 0 -z 20  -v circle -c green
n -t * -s 18  -x 201 -y 126 -Z 0 -z 20  -v circle -c green
n -t * -s 19  -x 201 -y 188 -Z 0 -z 20  -v circle -c green
n -t * -s 20  -x 201 -y 251 -Z 0 -z 20  -v circle -c green
n -t * -s 21  -x 201 -y 313 -Z 0 -z 20  -v circle -c green
n -t * -s 22  -x 201 -y 376 -Z 0 -z 20  -v circle -c green
n -t * -s 23  -x 201 -y 438 -Z 0 -z 20  -v circle -c green
n -t * -s 24  -x 301 -y 1 -Z 0 -z 20  -v circle -c green
n -t * -s 25  -x 301 -y 63 -Z 0 -z 20  -v circle -c green
n -t * -s 26  -x 301 -y 126 -Z 0 -z 20  -v circle -c green
n -t * -s 27  -x 301 -y 188 -Z 0 -z 20  -v circle -c green
n -t * -s 28  -x 301 -y 251 -Z 0 -z 20  -v circle -c green
n -t * -s 29  -x 301 -y 313 -Z 0 -z 20  -v circle -c green
n -t * -s 30  -x 301 -y 376 -Z 0 -z 20  -v circle -c green
n -t * -s 31  -x 301 -y 438 -Z 0 -z 20  -v circle -c green
n -t * -s 32  -x 401 -y 1 -Z 0 -z 20  -v circle -c green
n -t * -s 33  -x 401 -y 63 -Z 0 -z 20  -v circle -c green
n -t * -s 34  -x 401 -y 126 -Z 0 -z 20  -v circle -c green
n -t * -s 35  -x 401 -y 188 -Z 0 -z 20  -v circle -c green
n -t * -s 36  -x 401 -y 251 -Z 0 -z 20  -v circle -c green
n -t * -s 37  -x 401 -y 313 -Z 0 -z 20  -v circle -c green
n -t * -s 38  -x 401 -y 376 -Z 0 -z 20  -v circle -c green
n -t * -s 39  -x 401 -y 438 -Z 0 -z 20  -v circle -c green
V -t * -v 1.0a5 -a 0
W -t * -x 500 -y 500
A -t * -n 1 -p 0 -o 0x7fffffff -c 30 -a 1
A -t * -h 1 -m 1073741823 -s 0
+ -t 0.565233879 -s 16 -d -1 -p tcp -e 40 -c 2 -a 0 -i 0 -k AGT 
- -t 0.565233879 -s 16 -d -1 -p tcp -e 40 -c 2 -a 0 -i 0 -k AGT
h -t 0.565233879 -s 16 -d -1 -p tcp -e 40 -c 2 -a 0 -i 0 -k AGT
+ -t 0.571129731 -s 16 -d -1 -p DSR -e 32 -c 2 -a 0 -i 1 -k RTR 
- -t 0.571129731 -s 16 -d -1 -p DSR -e 32 -c 2 -a 0 -i 1 -k RTR
h -t 0.571129731 -s 16 -d -1 -p DSR -e 32 -c 2 -a 0 -i 1 -k RTR
+ -t 0.578729193 -s 1 -d 16 -p DSR -e 44 -c 2 -a 0 -i 2 -k RTR 
- -t 0.578729193 -s 1 -d 16 -p DSR -e 44 -c 2 -a 0 -i 2 -k RTR
h -t 0.578729193 -s 1 -d 16 -p DSR -e 44 -c 2 -a 0 -i 2 -k RTR
+ -t 0.584617079 -s 16 -d 1 -p tcp -e 76 -c 2 -a 0 -i 0 -k RTR 
- -t 0.584617079 -s 16 -d 1 -p tcp -e 76 -c 2 -a 0 -i 0 -k RTR
h -t 0.584617079 -s 16 -d 1 -p tcp -e 76 -c 2 -a 0 -i 0 -k RTR
r -t 0.587251173 -s 1 -d 1 -p tcp -e 40 -c 2 -a 0 -i 0 -k AGT
+ -t 0.587251173 -s 1 -d -1 -p ack -e 40 -c 2 -a 0 -i 4 -k AGT 
- -t 0.587251173 -s 1 -d -1 -p ack -e 40 -c 2 -a 0 -i 4 -k AGT
h -t 0.587251173 -s 1 -d -1 -p ack -e 40 -c 2 -a 0 -i 4 -k AGT
+ -t 0.587251173 -s 1 -d 16 -p ack -e 76 -c 2 -a 0 -i 4 -k RTR 
- -t 0.587251173 -s 1 -d 16 -p ack -e 76 -c 2 -a 0 -i 4 -k RTR
h -t 0.587251173 -s 1 -d 16 -p ack -e 76 -c 2 -a 0 -i 4 -k RTR
r -t 0.589505267 -s 16 -d 16 -p ack -e 40 -c 2 -a 0 -i 4 -k AGT
+ -t 0.589505267 -s 16 -d -1 -p tcp -e 1040 -c 2 -a 0 -i 5 -k AGT 
- -t 0.589505267 -s 16 -d -1 -p tcp -e 1040 -c 2 -a 0 -i 5 -k AGT
h -t 0.589505267 -s 16 -d -1 -p tcp -e 1040 -c 2 -a 0 -i 5 -k AGT
+ -t 0.589505267 -s 16 -d 1 -p tcp -e 1076 -c 2 -a 0 -i 5 -k RTR 
- -t 0.589505267 -s 16 -d 1 -p tcp -e 1076 -c 2 -a 0 -i 5 -k RTR
h -t 0.589505267 -s 16 -d 1 -p tcp -e 1076 -c 2 -a 0 -i 5 -k RTR
+ -t 0.593307121 -s 4 -d -1 -p tcp -e 40 -c 2 -a 0 -i 6 -k AGT 
- -t 0.593307121 -s 4 -d -1 -p tcp -e 40 -c 2 -a 0 -i 6 -k AGT
h -t 0.593307121 -s 4 -d -1 -p tcp -e 40 -c 2 -a 0 -i 6 -k AGT
+ -t 0.599706497 -s 4 -d -1 -p DSR -e 32 -c 2 -a 0 -i 7 -k RTR 
- -t 0.599706497 -s 4 -d -1 -p DSR -e 32 -c 2 -a 0 -i 7 -k RTR
h -t 0.599706497 -s 4 -d -1 -p DSR -e 32 -c 2 -a 0 -i 7 -k RTR
r -t 0.601279361 -s 1 -d 1 -p tcp -e 1040 -c 2 -a 0 -i 5 -k AGT
+ -t 0.601279361 -s 1 -d -1 -p ack -e 40 -c 2 -a 0 -i 9 -k AGT 
- -t 0.601279361 -s 1 -d -1 -p ack -e 40 -c 2 -a 0 -i 9 -k AGT
h -t 0.601279361 -s 1 -d -1 -p ack -e 40 -c 2 -a 0 -i 9 -k AGT
+ -t 0.601279361 -s 1 -d 16 -p ack -e 76 -c 2 -a 0 -i 9 -k RTR 
- -t 0.601279361 -s 1 -d 16 -p ack -e 76 -c 2 -a 0 -i 9 -k RTR
h -t 0.601279361 -s 1 -d 16 -p ack -e 76 -c 2 -a 0 -i 9 -k RTR
r -t 0.603513455 -s 16 -d 16 -p ack -e 40 -c 2 -a 0 -i 9 -k AGT
+ -t 0.613482242 -s 5 -d 4 -p DSR -e 44 -c 2 -a 0 -i 10 -k RTR 
- -t 0.613482242 -s 5 -d 4 -p DSR -e 44 -c 2 -a 0 -i 10 -k RTR
h -t 0.613482242 -s 5 -d 4 -p DSR -e 44 -c 2 -a 0 -i 10 -k RTR
+ -t 0.618706689 -s 4 -d 5 -p tcp -e 76 -c 2 -a 0 -i 6 -k RTR 
- -t 0.618706689 -s 4 -d 5 -p tcp -e 76 -c 2 -a 0 -i 6 -k RTR
h -t 0.618706689 -s 4 -d 5 -p tcp -e 76 -c 2 -a 0 -i 6 -k RTR
+ -t 0.618881233 -s 12 -d -1 -p tcp -e 40 -c 2 -a 0 -i 11 -k AGT 
- -t 0.618881233 -s 12 -d -1 -p tcp -e 40 -c 2 -a 0 -i 11 -k AGT
h -t 0.618881233 -s 12 -d -1 -p tcp -e 40 -c 2 -a 0 -i 11 -k AGT
+ -t 0.618975755 -s 12 -d -1 -p DSR -e 32 -c 2 -a 0 -i 12 -k RTR 
- -t 0.618975755 -s 12 -d -1 -p DSR -e 32 -c 2 -a 0 -i 12 -k RTR
h -t 0.618975755 -s 12 -d -1 -p DSR -e 32 -c 2 -a 0 -i 12 -k RTR
r -t 0.622254709 -s 5 -d 5 -p tcp -e 40 -c 2 -a 0 -i 6 -k AGT
+ -t 0.622254709 -s 5 -d -1 -p ack -e 40 -c 2 -a 0 -i 13 -k AGT 
- -t 0.622254709 -s 5 -d -1 -p ack -e 40 -c 2 -a 0 -i 13 -k AGT
h -t 0.622254709 -s 5 -d -1 -p ack -e 40 -c 2 -a 0 -i 13 -k AGT
+ -t 0.622254709 -s 5 -d 4 -p ack -e 76 -c 2 -a 0 -i 13 -k RTR 
- -t 0.622254709 -s 5 -d 4 -p ack -e 76 -c 2 -a 0 -i 13 -k RTR
h -t 0.622254709 -s 5 -d 4 -p ack -e 76 -c 2 -a 0 -i 13 -k RTR
r -t 0.624707329 -s 4 -d 4 -p ack -e 40 -c 2 -a 0 -i 13 -k AGT
+ -t 0.624707329 -s 4 -d -1 -p tcp -e 1040 -c 2 -a 0 -i 14 -k AGT 
- -t 0.624707329 -s 4 -d -1 -p tcp -e 1040 -c 2 -a 0 -i 14 -k AGT
h -t 0.624707329 -s 4 -d -1 -p tcp -e 1040 -c 2 -a 0 -i 14 -k AGT
+ -t 0.624707329 -s 4 -d 5 -p tcp -e 1076 -c 2 -a 0 -i 14 -k RTR 
- -t 0.624707329 -s 4 -d 5 -p tcp -e 1076 -c 2 -a 0 -i 14 -k RTR
h -t 0.624707329 -s 4 -d 5 -p tcp -e 1076 -c 2 -a 0 -i 14 -k RTR
r -t 0.635239949 -s 5 -d 5 -p tcp -e 1040 -c 2 -a 0 -i 14 -k AGT
+ -t 0.635239949 -s 5 -d -1 -p ack -e 40 -c 2 -a 0 -i 15 -k AGT 
- -t 0.635239949 -s 5 -d -1 -p ack -e 40 -c 2 -a 0 -i 15 -k AGT
h -t 0.635239949 -s 5 -d -1 -p ack -e 40 -c 2 -a 0 -i 15 -k AGT
+ -t 0.635239949 -s 5 -d 4 -p ack -e 76 -c 2 -a 0 -i 15 -k RTR 
- -t 0.635239949 -s 5 -d 4 -p ack -e 76 -c 2 -a 0 -i 15 -k RTR
h -t 0.635239949 -s 5 -d 4 -p ack -e 76 -c 2 -a 0 -i 15 -k RTR
r -t 0.637672569 -s 4 -d 4 -p ack -e 40 -c 2 -a 0 -i 15 -k AGT
+ -t 0.650728027 -s 1 -d -1 -p tcp -e 40 -c 2 -a 0 -i 17 -k AGT 
- -t 0.650728027 -s 1 -d -1 -p tcp -e 40 -c 2 -a 0 -i 17 -k AGT
h -t 0.650728027 -s 1 -d -1 -p tcp -e 40 -c 2 -a 0 -i 17 -k AGT
+ -t 0.653876714 -s 1 -d -1 -p DSR -e 32 -c 2 -a 0 -i 18 -k RTR 
- -t 0.653876714 -s 1 -d -1 -p DSR -e 32 -c 2 -a 0 -i 18 -k RTR
h -t 0.653876714 -s 1 -d -1 -p DSR -e 32 -c 2 -a 0 -i 18 -k RTR
+ -t 0.678240509 -s 3 -d -1 -p tcp -e 40 -c 2 -a 0 -i 20 -k AGT 
- -t 0.678240509 -s 3 -d -1 -p tcp -e 40 -c 2 -a 0 -i 20 -k AGT
h -t 0.678240509 -s 3 -d -1 -p tcp -e 40 -c 2 -a 0 -i 20 -k AGT
+ -t 0.682616661 -s 12 -d -1 -p DSR -e 32 -c 2 -a 0 -i 19 -k RTR 
- -t 0.682616661 -s 12 -d -1 -p DSR -e 32 -c 2 -a 0 -i 19 -k RTR
h -t 0.682616661 -s 12 -d -1 -p DSR -e 32 -c 2 -a 0 -i 19 -k RTR
+ -t 0.683948376 -s 23 -d -1 -p DSR -e 48 -c 2 -a 0 -i 19 -k RTR 
- -t 0.683948376 -s 23 -d -1 -p DSR -e 48 -c 2 -a 0 -i 19 -k RTR
h -t 0.683948376 -s 23 -d -1 -p DSR -e 48 -c 2 -a 0 -i 19 -k RTR
+ -t 0.683969652 -s 5 -d -1 -p DSR -e 48 -c 2 -a 0 -i 19 -k RTR 
- -t 0.683969652 -s 5 -d -1 -p DSR -e 48 -c 2 -a 0 -i 19 -k RTR
h -t 0.683969652 -s 5 -d -1 -p DSR -e 48 -c 2 -a 0 -i 19 -k RTR
+ -t 0.684318324 -s 28 -d -1 -p DSR -e 48 -c 2 -a 0 -i 19 -k RTR 
- -t 0.684318324 -s 28 -d -1 -p DSR -e 48 -c 2 -a 0 -i 19 -k RTR
h -t 0.684318324 -s 28 -d -1 -p DSR -e 48 -c 2 -a 0 -i 19 -k RTR
+ -t 0.684612140 -s 3 -d -1 -p DSR -e 32 -c 2 -a 0 -i 21 -k RTR 
- -t 0.684612140 -s 3 -d -1 -p DSR -e 32 -c 2 -a 0 -i 21 -k RTR
h -t 0.684612140 -s 3 -d -1 -p DSR -e 32 -c 2 -a 0 -i 21 -k RTR
+ -t 0.684697581 -s 13 -d -1 -p DSR -e 48 -c 2 -a 0 -i 19 -k RTR 
- -t 0.684697581 -s 13 -d -1 -p DSR -e 48 -c 2 -a 0 -i 19 -k RTR
h -t 0.684697581 -s 13 -d -1 -p DSR -e 48 -c 2 -a 0 -i 19 -k RTR
+ -t 0.685143720 -s 38 -d -1 -p DSR -e 68 -c 2 -a 0 -i 19 -k RTR 
- -t 0.685143720 -s 38 -d -1 -p DSR -e 68 -c 2 -a 0 -i 19 -k RTR
h -t 0.685143720 -s 38 -d -1 -p DSR -e 68 -c 2 -a 0 -i 19 -k RTR
+ -t 0.685329074 -s 31 -d -1 -p DSR -e 48 -c 2 -a 0 -i 19 -k RTR 
- -t 0.685329074 -s 31 -d -1 -p DSR -e 48 -c 2 -a 0 -i 19 -k RTR
h -t 0.685329074 -s 31 -d -1 -p DSR -e 48 -c 2 -a 0 -i 19 -k RTR
+ -t 0.685471027 -s 36 -d -1 -p DSR -e 48 -c 2 -a 0 -i 19 -k RTR 
- -t 0.685471027 -s 36 -d -1 -p DSR -e 48 -c 2 -a 0 -i 19 -k RTR
h -t 0.685471027 -s 36 -d -1 -p DSR -e 48 -c 2 -a 0 -i 19 -k RTR
+ -t 0.685485830 -s 22 -d -1 -p DSR -e 48 -c 2 -a 0 -i 19 -k RTR 
- -t 0.685485830 -s 22 -d -1 -p DSR -e 48 -c 2 -a 0 -i 19 -k RTR
h -t 0.685485830 -s 22 -d -1 -p DSR -e 48 -c 2 -a 0 -i 19 -k RTR
+ -t 0.685706414 -s 3 -d -1 -p DSR -e 48 -c 2 -a 0 -i 19 -k RTR 
- -t 0.685706414 -s 3 -d -1 -p DSR -e 48 -c 2 -a 0 -i 19 -k RTR
h -t 0.685706414 -s 3 -d -1 -p DSR -e 48 -c 2 -a 0 -i 19 -k RTR
+ -t 0.686255516 -s 16 -d -1 -p DSR -e 48 -c 2 -a 0 -i 19 -k RTR 
- -t 0.686255516 -s 16 -d -1 -p DSR -e 48 -c 2 -a 0 -i 19 -k RTR
h -t 0.686255516 -s 16 -d -1 -p DSR -e 48 -c 2 -a 0 -i 19 -k RTR
+ -t 0.686650559 -s 20 -d -1 -p DSR -e 48 -c 2 -a 0 -i 19 -k RTR 
- -t 0.686650559 -s 20 -d -1 -p DSR -e 48 -c 2 -a 0 -i 19 -k RTR
h -t 0.686650559 -s 20 -d -1 -p DSR -e 48 -c 2 -a 0 -i 19 -k RTR
+ -t 0.686836548 -s 19 -d -1 -p DSR -e 48 -c 2 -a 0 -i 19 -k RTR 
- -t 0.686836548 -s 19 -d -1 -p DSR -e 48 -c 2 -a 0 -i 19 -k RTR
h -t 0.686836548 -s 19 -d -1 -p DSR -e 48 -c 2 -a 0 -i 19 -k RTR
+ -t 0.687641160 -s 39 -d -1 -p DSR -e 68 -c 2 -a 0 -i 19 -k RTR 
- -t 0.687641160 -s 39 -d -1 -p DSR -e 68 -c 2 -a 0 -i 19 -k RTR
h -t 0.687641160 -s 39 -d -1 -p DSR -e 68 -c 2 -a 0 -i 19 -k RTR
+ -t 0.687946706 -s 4 -d -1 -p DSR -e 48 -c 2 -a 0 -i 19 -k RTR 
- -t 0.687946706 -s 4 -d -1 -p DSR -e 48 -c 2 -a 0 -i 19 -k RTR
h -t 0.687946706 -s 4 -d -1 -p DSR -e 48 -c 2 -a 0 -i 19 -k RTR
+ -t 0.688265081 -s 2 -d -1 -p DSR -e 48 -c 2 -a 0 -i 19 -k RTR 
- -t 0.688265081 -s 2 -d -1 -p DSR -e 48 -c 2 -a 0 -i 19 -k RTR
h -t 0.688265081 -s 2 -d -1 -p DSR -e 48 -c 2 -a 0 -i 19 -k RTR
+ -t 0.688426395 -s 21 -d -1 -p DSR -e 48 -c 2 -a 0 -i 19 -k RTR 
- -t 0.688426395 -s 21 -d -1 -p DSR -e 48 -c 2 -a 0 -i 19 -k RTR
h -t 0.688426395 -s 21 -d -1 -p DSR -e 48 -c 2 -a 0 -i 19 -k RTR
+ -t 0.688677122 -s 7 -d -1 -p DSR -e 48 -c 2 -a 0 -i 19 -k RTR 
- -t 0.688677122 -s 7 -d -1 -p DSR -e 48 -c 2 -a 0 -i 19 -k RTR
h -t 0.688677122 -s 7 -d -1 -p DSR -e 48 -c 2 -a 0 -i 19 -k RTR
+ -t 0.689239437 -s 30 -d -1 -p DSR -e 48 -c 2 -a 0 -i 19 -k RTR 
- -t 0.689239437 -s 30 -d -1 -p DSR -e 48 -c 2 -a 0 -i 19 -k RTR
h -t 0.689239437 -s 30 -d -1 -p DSR -e 48 -c 2 -a 0 -i 19 -k RTR
+ -t 0.689401450 -s 18 -d -1 -p DSR -e 48 -c 2 -a 0 -i 19 -k RTR 
- -t 0.689401450 -s 18 -d -1 -p DSR -e 48 -c 2 -a 0 -i 19 -k RTR
h -t 0.689401450 -s 18 -d -1 -p DSR -e 48 -c 2 -a 0 -i 19 -k RTR
+ -t 0.689439641 -s 29 -d -1 -p DSR -e 48 -c 2 -a 0 -i 19 -k RTR 
- -t 0.689439641 -s 29 -d -1 -p DSR -e 48 -c 2 -a 0 -i 19 -k RTR
h -t 0.689439641 -s 29 -d -1 -p DSR -e 48 -c 2 -a 0 -i 19 -k RTR
+ -t 0.689473119 -s 8 -d -1 -p DSR -e 48 -c 2 -a 0 -i 19 -k RTR 
- -t 0.689473119 -s 8 -d -1 -p DSR -e 48 -c 2 -a 0 -i 19 -k RTR
h -t 0.689473119 -s 8 -d -1 -p DSR -e 48 -c 2 -a 0 -i 19 -k RTR
+ -t 0.690012233 -s 1 -d -1 -p DSR -e 48 -c 2 -a 0 -i 19 -k RTR 
- -t 0.690012233 -s 1 -d -1 -p DSR -e 48 -c 2 -a 0 -i 19 -k RTR
h -t 0.690012233 -s 1 -d -1 -p DSR -e 48 -c 2 -a 0 -i 19 -k RTR
+ -t 0.690568331 -s 14 -d -1 -p DSR -e 48 -c 2 -a 0 -i 19 -k RTR 
- -t 0.690568331 -s 14 -d -1 -p DSR -e 48 -c 2 -a 0 -i 19 -k RTR
h -t 0.690568331 -s 14 -d -1 -p DSR -e 48 -c 2 -a 0 -i 19 -k RTR
+ -t 0.690621198 -s 0 -d -1 -p DSR -e 48 -c 2 -a 0 -i 19 -k RTR 
- -t 0.690621198 -s 0 -d -1 -p DSR -e 48 -c 2 -a 0 -i 19 -k RTR
h -t 0.690621198 -s 0 -d -1 -p DSR -e 48 -c 2 -a 0 -i 19 -k RTR
+ -t 0.690696939 -s 15 -d -1 -p DSR -e 48 -c 2 -a 0 -i 19 -k RTR 
- -t 0.690696939 -s 15 -d -1 -p DSR -e 48 -c 2 -a 0 -i 19 -k RTR
h -t 0.690696939 -s 15 -d -1 -p DSR -e 48 -c 2 -a 0 -i 19 -k RTR
+ -t 0.691233962 -s 17 -d -1 -p DSR -e 48 -c 2 -a 0 -i 19 -k RTR 
- -t 0.691233962 -s 17 -d -1 -p DSR -e 48 -c 2 -a 0 -i 19 -k RTR
h -t 0.691233962 -s 17 -d -1 -p DSR -e 48 -c 2 -a 0 -i 19 -k RTR
+ -t 0.691573465 -s 9 -d -1 -p DSR -e 48 -c 2 -a 0 -i 19 -k RTR 
- -t 0.691573465 -s 9 -d -1 -p DSR -e 48 -c 2 -a 0 -i 19 -k RTR
h -t 0.691573465 -s 9 -d -1 -p DSR -e 48 -c 2 -a 0 -i 19 -k RTR
+ -t 0.691732197 -s 35 -d 38 -p DSR -e 60 -c 2 -a 0 -i 23 -k RTR 
- -t 0.691732197 -s 35 -d 38 -p DSR -e 60 -c 2 -a 0 -i 23 -k RTR
h -t 0.691732197 -s 35 -d 38 -p DSR -e 60 -c 2 -a 0 -i 23 -k RTR
+ -t 0.692033950 -s 25 -d -1 -p DSR -e 48 -c 2 -a 0 -i 19 -k RTR 
- -t 0.692033950 -s 25 -d -1 -p DSR -e 48 -c 2 -a 0 -i 19 -k RTR
h -t 0.692033950 -s 25 -d -1 -p DSR -e 48 -c 2 -a 0 -i 19 -k RTR
+ -t 0.692376092 -s 6 -d -1 -p DSR -e 48 -c 2 -a 0 -i 19 -k RTR 
- -t 0.692376092 -s 6 -d -1 -p DSR -e 48 -c 2 -a 0 -i 19 -k RTR
h -t 0.692376092 -s 6 -d -1 -p DSR -e 48 -c 2 -a 0 -i 19 -k RTR
+ -t 0.692519056 -s 26 -d -1 -p DSR -e 48 -c 2 -a 0 -i 19 -k RTR 
- -t 0.692519056 -s 26 -d -1 -p DSR -e 48 -c 2 -a 0 -i 19 -k RTR
h -t 0.692519056 -s 26 -d -1 -p DSR -e 48 -c 2 -a 0 -i 19 -k RTR
+ -t 0.692580629 -s 34 -d -1 -p DSR -e 92 -c 2 -a 0 -i 19 -k RTR 
- -t 0.692580629 -s 34 -d -1 -p DSR -e 92 -c 2 -a 0 -i 19 -k RTR
h -t 0.692580629 -s 34 -d -1 -p DSR -e 92 -c 2 -a 0 -i 19 -k RTR
+ -t 0.692643453 -s 35 -d 39 -p DSR -e 60 -c 2 -a 0 -i 24 -k RTR 
- -t 0.692643453 -s 35 -d 39 -p DSR -e 60 -c 2 -a 0 -i 24 -k RTR
h -t 0.692643453 -s 35 -d 39 -p DSR -e 60 -c 2 -a 0 -i 24 -k RTR
+ -t 0.692692578 -s 10 -d -1 -p DSR -e 48 -c 2 -a 0 -i 19 -k RTR 
- -t 0.692692578 -s 10 -d -1 -p DSR -e 48 -c 2 -a 0 -i 19 -k RTR
h -t 0.692692578 -s 10 -d -1 -p DSR -e 48 -c 2 -a 0 -i 19 -k RTR
+ -t 0.692912408 -s 35 -d 22 -p DSR -e 52 -c 2 -a 0 -i 22 -k RTR 
- -t 0.692912408 -s 35 -d 22 -p DSR -e 52 -c 2 -a 0 -i 22 -k RTR
h -t 0.692912408 -s 35 -d 22 -p DSR -e 52 -c 2 -a 0 -i 22 -k RTR
+ -t 0.693149916 -s 27 -d -1 -p DSR -e 48 -c 2 -a 0 -i 19 -k RTR 
- -t 0.693149916 -s 27 -d -1 -p DSR -e 48 -c 2 -a 0 -i 19 -k RTR
h -t 0.693149916 -s 27 -d -1 -p DSR -e 48 -c 2 -a 0 -i 19 -k RTR
+ -t 0.693436035 -s 11 -d -1 -p DSR -e 48 -c 2 -a 0 -i 19 -k RTR 
- -t 0.693436035 -s 11 -d -1 -p DSR -e 48 -c 2 -a 0 -i 19 -k RTR
h -t 0.693436035 -s 11 -d -1 -p DSR -e 48 -c 2 -a 0 -i 19 -k RTR
+ -t 0.693521911 -s 35 -d 20 -p DSR -e 52 -c 2 -a 0 -i 25 -k RTR 
- -t 0.693521911 -s 35 -d 20 -p DSR -e 52 -c 2 -a 0 -i 25 -k RTR
h -t 0.693521911 -s 35 -d 20 -p DSR -e 52 -c 2 -a 0 -i 25 -k RTR
+ -t 0.693722104 -s 37 -d -1 -p DSR -e 68 -c 2 -a 0 -i 19 -k RTR 
- -t 0.693722104 -s 37 -d -1 -p DSR -e 68 -c 2 -a 0 -i 19 -k RTR
h -t 0.693722104 -s 37 -d -1 -p DSR -e 68 -c 2 -a 0 -i 19 -k RTR
+ -t 0.694083703 -s 35 -d 28 -p DSR -e 52 -c 2 -a 0 -i 27 -k RTR 
- -t 0.694083703 -s 35 -d 28 -p DSR -e 52 -c 2 -a 0 -i 27 -k RTR
h -t 0.694083703 -s 35 -d 28 -p DSR -e 52 -c 2 -a 0 -i 27 -k RTR
+ -t 0.694487280 -s 24 -d -1 -p DSR -e 68 -c 2 -a 0 -i 19 -k RTR 
- -t 0.694487280 -s 24 -d -1 -p DSR -e 68 -c 2 -a 0 -i 19 -k RTR
h -t 0.694487280 -s 24 -d -1 -p DSR -e 68 -c 2 -a 0 -i 19 -k RTR
+ -t 0.696882062 -s 35 -d 29 -p DSR -e 52 -c 2 -a 0 -i 29 -k RTR 
- -t 0.696882062 -s 35 -d 29 -p DSR -e 52 -c 2 -a 0 -i 29 -k RTR
h -t 0.696882062 -s 35 -d 29 -p DSR -e 52 -c 2 -a 0 -i 29 -k RTR
+ -t 0.700023598 -s 33 -d -1 -p DSR -e 68 -c 2 -a 0 -i 19 -k RTR 
- -t 0.700023598 -s 33 -d -1 -p DSR -e 68 -c 2 -a 0 -i 19 -k RTR
h -t 0.700023598 -s 33 -d -1 -p DSR -e 68 -c 2 -a 0 -i 19 -k RTR
+ -t 0.700519135 -s 3 -d -1 -p tcp -e 40 -c 2 -a 0 -i 31 -k AGT 
- -t 0.700519135 -s 3 -d -1 -p tcp -e 40 -c 2 -a 0 -i 31 -k AGT
h -t 0.700519135 -s 3 -d -1 -p tcp -e 40 -c 2 -a 0 -i 31 -k AGT
+ -t 0.700769134 -s 35 -d 30 -p DSR -e 52 -c 2 -a 0 -i 26 -k RTR 
- -t 0.700769134 -s 35 -d 30 -p DSR -e 52 -c 2 -a 0 -i 26 -k RTR
h -t 0.700769134 -s 35 -d 30 -p DSR -e 52 -c 2 -a 0 -i 26 -k RTR
+ -t 0.701721078 -s 3 -d -1 -p DSR -e 32 -c 2 -a 0 -i 32 -k RTR 
- -t 0.701721078 -s 3 -d -1 -p DSR -e 32 -c 2 -a 0 -i 32 -k RTR
h -t 0.701721078 -s 3 -d -1 -p DSR -e 32 -c 2 -a 0 -i 32 -k RTR
+ -t 0.702621672 -s 35 -d 19 -p DSR -e 52 -c 2 -a 0 -i 28 -k RTR 
- -t 0.702621672 -s 35 -d 19 -p DSR -e 52 -c 2 -a 0 -i 28 -k RTR
h -t 0.702621672 -s 35 -d 19 -p DSR -e 52 -c 2 -a 0 -i 28 -k RTR
+ -t 0.702778890 -s 32 -d -1 -p DSR -e 68 -c 2 -a 0 -i 19 -k RTR 
- -t 0.702778890 -s 32 -d -1 -p DSR -e 68 -c 2 -a 0 -i 19 -k RTR
h -t 0.702778890 -s 32 -d -1 -p DSR -e 68 -c 2 -a 0 -i 19 -k RTR
+ -t 0.703581152 -s 35 -d 25 -p DSR -e 52 -c 2 -a 0 -i 30 -k RTR 
- -t 0.703581152 -s 35 -d 25 -p DSR -e 52 -c 2 -a 0 -i 30 -k RTR
h -t 0.703581152 -s 35 -d 25 -p DSR -e 52 -c 2 -a 0 -i 30 -k RTR
+ -t 0.706335109 -s 1 -d -1 -p DSR -e 32 -c 2 -a 0 -i 35 -k RTR 
- -t 0.706335109 -s 1 -d -1 -p DSR -e 32 -c 2 -a 0 -i 35 -k RTR
h -t 0.706335109 -s 1 -d -1 -p DSR -e 32 -c 2 -a 0 -i 35 -k RTR
+ -t 0.709981617 -s 35 -d 33 -p DSR -e 60 -c 2 -a 0 -i 36 -k RTR 
- -t 0.709981617 -s 35 -d 33 -p DSR -e 60 -c 2 -a 0 -i 36 -k RTR
h -t 0.709981617 -s 35 -d 33 -p DSR -e 60 -c 2 -a 0 -i 36 -k RTR
+ -t 0.712112890 -s 35 -d 36 -p DSR -e 52 -c 2 -a 0 -i 37 -k RTR 
- -t 0.712112890 -s 35 -d 36 -p DSR -e 52 -c 2 -a 0 -i 37 -k RTR
h -t 0.712112890 -s 35 -d 36 -p DSR -e 52 -c 2 -a 0 -i 37 -k RTR
+ -t 0.712143982 -s 35 -d 18 -p DSR -e 52 -c 2 -a 0 -i 38 -k RTR 
- -t 0.712143982 -s 35 -d 18 -p DSR -e 52 -c 2 -a 0 -i 38 -k RTR
h -t 0.712143982 -s 35 -d 18 -p DSR -e 52 -c 2 -a 0 -i 38 -k RTR
+ -t 0.715921632 -s 38 -d 23 -p DSR -e 60 -c 2 -a 0 -i 23 -k RTR 
- -t 0.715921632 -s 38 -d 23 -p DSR -e 60 -c 2 -a 0 -i 23 -k RTR
h -t 0.715921632 -s 38 -d 23 -p DSR -e 60 -c 2 -a 0 -i 23 -k RTR
+ -t 0.716909118 -s 35 -d 32 -p DSR -e 60 -c 2 -a 0 -i 40 -k RTR 
- -t 0.716909118 -s 35 -d 32 -p DSR -e 60 -c 2 -a 0 -i 40 -k RTR
h -t 0.716909118 -s 35 -d 32 -p DSR -e 60 -c 2 -a 0 -i 40 -k RTR
+ -t 0.718829204 -s 35 -d 24 -p DSR -e 60 -c 2 -a 0 -i 39 -k RTR 
- -t 0.718829204 -s 35 -d 24 -p DSR -e 60 -c 2 -a 0 -i 39 -k RTR
h -t 0.718829204 -s 35 -d 24 -p DSR -e 60 -c 2 -a 0 -i 39 -k RTR
+ -t 0.728559712 -s 39 -d 23 -p DSR -e 60 -c 2 -a 0 -i 24 -k RTR 
- -t 0.728559712 -s 39 -d 23 -p DSR -e 60 -c 2 -a 0 -i 24 -k RTR
h -t 0.728559712 -s 39 -d 23 -p DSR -e 60 -c 2 -a 0 -i 24 -k RTR
+ -t 0.729215073 -s 0 -d -1 -p tcp -e 40 -c 2 -a 0 -i 42 -k AGT 
- -t 0.729215073 -s 0 -d -1 -p tcp -e 40 -c 2 -a 0 -i 42 -k AGT
h -t 0.729215073 -s 0 -d -1 -p tcp -e 40 -c 2 -a 0 -i 42 -k AGT
+ -t 0.730543290 -s 22 -d 12 -p DSR -e 52 -c 2 -a 0 -i 22 -k RTR 
- -t 0.730543290 -s 22 -d 12 -p DSR -e 52 -c 2 -a 0 -i 22 -k RTR
h -t 0.730543290 -s 22 -d 12 -p DSR -e 52 -c 2 -a 0 -i 22 -k RTR
+ -t 0.734142480 -s 0 -d -1 -p DSR -e 32 -c 2 -a 0 -i 43 -k RTR 
- -t 0.734142480 -s 0 -d -1 -p DSR -e 32 -c 2 -a 0 -i 43 -k RTR
h -t 0.734142480 -s 0 -d -1 -p DSR -e 32 -c 2 -a 0 -i 43 -k RTR
+ -t 0.736518266 -s 3 -d -1 -p DSR -e 32 -c 2 -a 0 -i 45 -k RTR 
- -t 0.736518266 -s 3 -d -1 -p DSR -e 32 -c 2 -a 0 -i 45 -k RTR
h -t 0.736518266 -s 3 -d -1 -p DSR -e 32 -c 2 -a 0 -i 45 -k RTR
+ -t 0.738304214 -s 23 -d 12 -p DSR -e 60 -c 2 -a 0 -i 24 -k RTR 
- -t 0.738304214 -s 23 -d 12 -p DSR -e 60 -c 2 -a 0 -i 24 -k RTR
h -t 0.738304214 -s 23 -d 12 -p DSR -e 60 -c 2 -a 0 -i 24 -k RTR
+ -t 0.740431006 -s 23 -d 12 -p DSR -e 60 -c 2 -a 0 -i 23 -k RTR 
- -t 0.740431006 -s 23 -d 12 -p DSR -e 60 -c 2 -a 0 -i 23 -k RTR
h -t 0.740431006 -s 23 -d 12 -p DSR -e 60 -c 2 -a 0 -i 23 -k RTR
d -t 0.740431006 -s 23 -d 12 -p DSR -e 60 -c 2 -a 0 -i 24 -k IFQ
+ -t 0.742787793 -s 3 -d -1 -p DSR -e 32 -c 2 -a 0 -i 44 -k RTR 
- -t 0.742787793 -s 3 -d -1 -p DSR -e 32 -c 2 -a 0 -i 44 -k RTR
h -t 0.742787793 -s 3 -d -1 -p DSR -e 32 -c 2 -a 0 -i 44 -k RTR
+ -t 0.746059328 -s 12 -d 22 -p tcp -e 80 -c 2 -a 0 -i 11 -k RTR 
- -t 0.746059328 -s 12 -d 22 -p tcp -e 80 -c 2 -a 0 -i 11 -k RTR
h -t 0.746059328 -s 12 -d 22 -p tcp -e 80 -c 2 -a 0 -i 11 -k RTR
+ -t 0.748911179 -s 6 -d -1 -p DSR -e 48 -c 2 -a 0 -i 45 -k RTR 
- -t 0.748911179 -s 6 -d -1 -p DSR -e 48 -c 2 -a 0 -i 45 -k RTR
h -t 0.748911179 -s 6 -d -1 -p DSR -e 48 -c 2 -a 0 -i 45 -k RTR
+ -t 0.749030563 -s 2 -d -1 -p DSR -e 48 -c 2 -a 0 -i 45 -k RTR 
- -t 0.749030563 -s 2 -d -1 -p DSR -e 48 -c 2 -a 0 -i 45 -k RTR
h -t 0.749030563 -s 2 -d -1 -p DSR -e 48 -c 2 -a 0 -i 45 -k RTR
+ -t 0.749139078 -s 0 -d 3 -p DSR -e 44 -c 2 -a 0 -i 46 -k RTR 
- -t 0.749139078 -s 0 -d 3 -p DSR -e 44 -c 2 -a 0 -i 46 -k RTR
h -t 0.749139078 -s 0 -d 3 -p DSR -e 44 -c 2 -a 0 -i 46 -k RTR
+ -t 0.749829730 -s 16 -d -1 -p DSR -e 48 -c 2 -a 0 -i 45 -k RTR 
- -t 0.749829730 -s 16 -d -1 -p DSR -e 48 -c 2 -a 0 -i 45 -k RTR
h -t 0.749829730 -s 16 -d -1 -p DSR -e 48 -c 2 -a 0 -i 45 -k RTR
+ -t 0.750133607 -s 22 -d -1 -p DSR -e 48 -c 2 -a 0 -i 45 -k RTR 
- -t 0.750133607 -s 22 -d -1 -p DSR -e 48 -c 2 -a 0 -i 45 -k RTR
h -t 0.750133607 -s 22 -d -1 -p DSR -e 48 -c 2 -a 0 -i 45 -k RTR
+ -t 0.750413041 -s 25 -d -1 -p DSR -e 48 -c 2 -a 0 -i 35 -k RTR 
- -t 0.750413041 -s 25 -d -1 -p DSR -e 48 -c 2 -a 0 -i 35 -k RTR
h -t 0.750413041 -s 25 -d -1 -p DSR -e 48 -c 2 -a 0 -i 35 -k RTR
+ -t 0.750554255 -s 8 -d -1 -p DSR -e 48 -c 2 -a 0 -i 45 -k RTR 
- -t 0.750554255 -s 8 -d -1 -p DSR -e 48 -c 2 -a 0 -i 45 -k RTR
h -t 0.750554255 -s 8 -d -1 -p DSR -e 48 -c 2 -a 0 -i 45 -k RTR
+ -t 0.751347420 -s 10 -d -1 -p DSR -e 48 -c 2 -a 0 -i 45 -k RTR 
- -t 0.751347420 -s 10 -d -1 -p DSR -e 48 -c 2 -a 0 -i 45 -k RTR
h -t 0.751347420 -s 10 -d -1 -p DSR -e 48 -c 2 -a 0 -i 45 -k RTR
+ -t 0.751576206 -s 16 -d -1 -p DSR -e 48 -c 2 -a 0 -i 35 -k RTR 
- -t 0.751576206 -s 16 -d -1 -p DSR -e 48 -c 2 -a 0 -i 35 -k RTR
h -t 0.751576206 -s 16 -d -1 -p DSR -e 48 -c 2 -a 0 -i 35 -k RTR
+ -t 0.751705226 -s 27 -d -1 -p DSR -e 48 -c 2 -a 0 -i 45 -k RTR 
- -t 0.751705226 -s 27 -d -1 -p DSR -e 48 -c 2 -a 0 -i 45 -k RTR
h -t 0.751705226 -s 27 -d -1 -p DSR -e 48 -c 2 -a 0 -i 45 -k RTR
+ -t 0.751792071 -s 12 -d -1 -p DSR -e 48 -c 2 -a 0 -i 35 -k RTR 
- -t 0.751792071 -s 12 -d -1 -p DSR -e 48 -c 2 -a 0 -i 35 -k RTR
h -t 0.751792071 -s 12 -d -1 -p DSR -e 48 -c 2 -a 0 -i 35 -k RTR
+ -t 0.752428948 -s 8 -d -1 -p DSR -e 48 -c 2 -a 0 -i 35 -k RTR 
- -t 0.752428948 -s 8 -d -1 -p DSR -e 48 -c 2 -a 0 -i 35 -k RTR
h -t 0.752428948 -s 8 -d -1 -p DSR -e 48 -c 2 -a 0 -i 35 -k RTR
+ -t 0.752586350 -s 1 -d -1 -p DSR -e 48 -c 2 -a 0 -i 45 -k RTR 
- -t 0.752586350 -s 1 -d -1 -p DSR -e 48 -c 2 -a 0 -i 45 -k RTR
h -t 0.752586350 -s 1 -d -1 -p DSR -e 48 -c 2 -a 0 -i 45 -k RTR
+ -t 0.752871650 -s 5 -d -1 -p DSR -e 48 -c 2 -a 0 -i 35 -k RTR 
- -t 0.752871650 -s 5 -d -1 -p DSR -e 48 -c 2 -a 0 -i 35 -k RTR
h -t 0.752871650 -s 5 -d -1 -p DSR -e 48 -c 2 -a 0 -i 35 -k RTR
+ -t 0.752991694 -s 24 -d -1 -p DSR -e 68 -c 2 -a 0 -i 35 -k RTR 
- -t 0.752991694 -s 24 -d -1 -p DSR -e 68 -c 2 -a 0 -i 35 -k RTR
h -t 0.752991694 -s 24 -d -1 -p DSR -e 68 -c 2 -a 0 -i 35 -k RTR
+ -t 0.753087510 -s 11 -d -1 -p DSR -e 48 -c 2 -a 0 -i 45 -k RTR 
- -t 0.753087510 -s 11 -d -1 -p DSR -e 48 -c 2 -a 0 -i 45 -k RTR
h -t 0.753087510 -s 11 -d -1 -p DSR -e 48 -c 2 -a 0 -i 45 -k RTR
+ -t 0.753121006 -s 10 -d -1 -p DSR -e 48 -c 2 -a 0 -i 35 -k RTR 
- -t 0.753121006 -s 10 -d -1 -p DSR -e 48 -c 2 -a 0 -i 35 -k RTR
h -t 0.753121006 -s 10 -d -1 -p DSR -e 48 -c 2 -a 0 -i 35 -k RTR
+ -t 0.753292974 -s 12 -d -1 -p DSR -e 48 -c 2 -a 0 -i 45 -k RTR 
- -t 0.753292974 -s 12 -d -1 -p DSR -e 48 -c 2 -a 0 -i 45 -k RTR
h -t 0.753292974 -s 12 -d -1 -p DSR -e 48 -c 2 -a 0 -i 45 -k RTR
+ -t 0.753374038 -s 4 -d -1 -p DSR -e 48 -c 2 -a 0 -i 45 -k RTR 
- -t 0.753374038 -s 4 -d -1 -p DSR -e 48 -c 2 -a 0 -i 45 -k RTR
h -t 0.753374038 -s 4 -d -1 -p DSR -e 48 -c 2 -a 0 -i 45 -k RTR
+ -t 0.753508829 -s 7 -d -1 -p DSR -e 48 -c 2 -a 0 -i 45 -k RTR 
- -t 0.753508829 -s 7 -d -1 -p DSR -e 48 -c 2 -a 0 -i 45 -k RTR
h -t 0.753508829 -s 7 -d -1 -p DSR -e 48 -c 2 -a 0 -i 45 -k RTR
+ -t 0.753575390 -s 2 -d -1 -p DSR -e 48 -c 2 -a 0 -i 35 -k RTR 
- -t 0.753575390 -s 2 -d -1 -p DSR -e 48 -c 2 -a 0 -i 35 -k RTR
h -t 0.753575390 -s 2 -d -1 -p DSR -e 48 -c 2 -a 0 -i 35 -k RTR
+ -t 0.753781254 -s 19 -d -1 -p DSR -e 48 -c 2 -a 0 -i 45 -k RTR 
- -t 0.753781254 -s 19 -d -1 -p DSR -e 48 -c 2 -a 0 -i 45 -k RTR
h -t 0.753781254 -s 19 -d -1 -p DSR -e 48 -c 2 -a 0 -i 45 -k RTR
+ -t 0.753782509 -s 0 -d 3 -p DSR -e 44 -c 2 -a 0 -i 48 -k RTR 
- -t 0.753782509 -s 0 -d 3 -p DSR -e 44 -c 2 -a 0 -i 48 -k RTR
h -t 0.753782509 -s 0 -d 3 -p DSR -e 44 -c 2 -a 0 -i 48 -k RTR
d -t 0.753782509 -s 0 -d 3 -p DSR -e 44 -c 2 -a 0 -i 46 -k IFQ
+ -t 0.754244476 -s 5 -d -1 -p DSR -e 48 -c 2 -a 0 -i 45 -k RTR 
- -t 0.754244476 -s 5 -d -1 -p DSR -e 48 -c 2 -a 0 -i 45 -k RTR
h -t 0.754244476 -s 5 -d -1 -p DSR -e 48 -c 2 -a 0 -i 45 -k RTR
+ -t 0.754388087 -s 3 -d -1 -p DSR -e 48 -c 2 -a 0 -i 35 -k RTR 
- -t 0.754388087 -s 3 -d -1 -p DSR -e 48 -c 2 -a 0 -i 35 -k RTR
h -t 0.754388087 -s 3 -d -1 -p DSR -e 48 -c 2 -a 0 -i 35 -k RTR
+ -t 0.754672118 -s 0 -d -1 -p DSR -e 48 -c 2 -a 0 -i 35 -k RTR 
- -t 0.754672118 -s 0 -d -1 -p DSR -e 48 -c 2 -a 0 -i 35 -k RTR
h -t 0.754672118 -s 0 -d -1 -p DSR -e 48 -c 2 -a 0 -i 35 -k RTR
+ -t 0.754827143 -s 30 -d -1 -p DSR -e 68 -c 2 -a 0 -i 45 -k RTR 
- -t 0.754827143 -s 30 -d -1 -p DSR -e 68 -c 2 -a 0 -i 45 -k RTR
h -t 0.754827143 -s 30 -d -1 -p DSR -e 68 -c 2 -a 0 -i 45 -k RTR
+ -t 0.755020917 -s 18 -d -1 -p DSR -e 48 -c 2 -a 0 -i 35 -k RTR 
- -t 0.755020917 -s 18 -d -1 -p DSR -e 48 -c 2 -a 0 -i 35 -k RTR
h -t 0.755020917 -s 18 -d -1 -p DSR -e 48 -c 2 -a 0 -i 35 -k RTR
+ -t 0.755104617 -s 14 -d -1 -p DSR -e 48 -c 2 -a 0 -i 45 -k RTR 
- -t 0.755104617 -s 14 -d -1 -p DSR -e 48 -c 2 -a 0 -i 45 -k RTR
h -t 0.755104617 -s 14 -d -1 -p DSR -e 48 -c 2 -a 0 -i 45 -k RTR
+ -t 0.755491770 -s 34 -d -1 -p DSR -e 68 -c 2 -a 0 -i 35 -k RTR 
- -t 0.755491770 -s 34 -d -1 -p DSR -e 68 -c 2 -a 0 -i 35 -k RTR
h -t 0.755491770 -s 34 -d -1 -p DSR -e 68 -c 2 -a 0 -i 35 -k RTR
+ -t 0.755651598 -s 15 -d -1 -p DSR -e 48 -c 2 -a 0 -i 45 -k RTR 
- -t 0.755651598 -s 15 -d -1 -p DSR -e 48 -c 2 -a 0 -i 45 -k RTR
h -t 0.755651598 -s 15 -d -1 -p DSR -e 48 -c 2 -a 0 -i 45 -k RTR
+ -t 0.755731503 -s 29 -d -1 -p DSR -e 68 -c 2 -a 0 -i 45 -k RTR 
- -t 0.755731503 -s 29 -d -1 -p DSR -e 68 -c 2 -a 0 -i 45 -k RTR
h -t 0.755731503 -s 29 -d -1 -p DSR -e 68 -c 2 -a 0 -i 45 -k RTR
+ -t 0.755970075 -s 19 -d -1 -p DSR -e 48 -c 2 -a 0 -i 35 -k RTR 
- -t 0.755970075 -s 19 -d -1 -p DSR -e 48 -c 2 -a 0 -i 35 -k RTR
h -t 0.755970075 -s 19 -d -1 -p DSR -e 48 -c 2 -a 0 -i 35 -k RTR
+ -t 0.756046553 -s 17 -d -1 -p DSR -e 48 -c 2 -a 0 -i 45 -k RTR 
- -t 0.756046553 -s 17 -d -1 -p DSR -e 48 -c 2 -a 0 -i 45 -k RTR
h -t 0.756046553 -s 17 -d -1 -p DSR -e 48 -c 2 -a 0 -i 45 -k RTR
+ -t 0.756099856 -s 9 -d -1 -p DSR -e 48 -c 2 -a 0 -i 45 -k RTR 
- -t 0.756099856 -s 9 -d -1 -p DSR -e 48 -c 2 -a 0 -i 45 -k RTR
h -t 0.756099856 -s 9 -d -1 -p DSR -e 48 -c 2 -a 0 -i 45 -k RTR
+ -t 0.756194475 -s 21 -d -1 -p DSR -e 48 -c 2 -a 0 -i 45 -k RTR 
- -t 0.756194475 -s 21 -d -1 -p DSR -e 48 -c 2 -a 0 -i 45 -k RTR
h -t 0.756194475 -s 21 -d -1 -p DSR -e 48 -c 2 -a 0 -i 45 -k RTR
+ -t 0.756443911 -s 11 -d -1 -p DSR -e 48 -c 2 -a 0 -i 35 -k RTR 
- -t 0.756443911 -s 11 -d -1 -p DSR -e 48 -c 2 -a 0 -i 35 -k RTR
h -t 0.756443911 -s 11 -d -1 -p DSR -e 48 -c 2 -a 0 -i 35 -k RTR
+ -t 0.756454033 -s 13 -d -1 -p DSR -e 48 -c 2 -a 0 -i 45 -k RTR 
- -t 0.756454033 -s 13 -d -1 -p DSR -e 48 -c 2 -a 0 -i 45 -k RTR
h -t 0.756454033 -s 13 -d -1 -p DSR -e 48 -c 2 -a 0 -i 45 -k RTR
+ -t 0.756989475 -s 18 -d -1 -p DSR -e 48 -c 2 -a 0 -i 45 -k RTR 
- -t 0.756989475 -s 18 -d -1 -p DSR -e 48 -c 2 -a 0 -i 45 -k RTR
h -t 0.756989475 -s 18 -d -1 -p DSR -e 48 -c 2 -a 0 -i 45 -k RTR
+ -t 0.757002272 -s 0 -d 10 -p DSR -e 52 -c 2 -a 0 -i 50 -k RTR 
- -t 0.757002272 -s 0 -d 10 -p DSR -e 52 -c 2 -a 0 -i 50 -k RTR
h -t 0.757002272 -s 0 -d 10 -p DSR -e 52 -c 2 -a 0 -i 50 -k RTR
+ -t 0.757524941 -s 0 -d 8 -p DSR -e 52 -c 2 -a 0 -i 52 -k RTR 
- -t 0.757524941 -s 0 -d 8 -p DSR -e 52 -c 2 -a 0 -i 52 -k RTR
h -t 0.757524941 -s 0 -d 8 -p DSR -e 52 -c 2 -a 0 -i 52 -k RTR
+ -t 0.757838315 -s 20 -d -1 -p DSR -e 48 -c 2 -a 0 -i 45 -k RTR 
- -t 0.757838315 -s 20 -d -1 -p DSR -e 48 -c 2 -a 0 -i 45 -k RTR
h -t 0.757838315 -s 20 -d -1 -p DSR -e 48 -c 2 -a 0 -i 45 -k RTR
+ -t 0.757911938 -s 4 -d -1 -p DSR -e 48 -c 2 -a 0 -i 35 -k RTR 
- -t 0.757911938 -s 4 -d -1 -p DSR -e 48 -c 2 -a 0 -i 35 -k RTR
h -t 0.757911938 -s 4 -d -1 -p DSR -e 48 -c 2 -a 0 -i 35 -k RTR
+ -t 0.758092331 -s 21 -d -1 -p DSR -e 68 -c 2 -a 0 -i 35 -k RTR 
- -t 0.758092331 -s 21 -d -1 -p DSR -e 68 -c 2 -a 0 -i 35 -k RTR
h -t 0.758092331 -s 21 -d -1 -p DSR -e 68 -c 2 -a 0 -i 35 -k RTR
+ -t 0.758155254 -s 28 -d -1 -p DSR -e 68 -c 2 -a 0 -i 45 -k RTR 
- -t 0.758155254 -s 28 -d -1 -p DSR -e 68 -c 2 -a 0 -i 45 -k RTR
h -t 0.758155254 -s 28 -d -1 -p DSR -e 68 -c 2 -a 0 -i 45 -k RTR
+ -t 0.758171049 -s 17 -d 0 -p DSR -e 44 -c 2 -a 0 -i 49 -k RTR 
- -t 0.758171049 -s 17 -d 0 -p DSR -e 44 -c 2 -a 0 -i 49 -k RTR
h -t 0.758171049 -s 17 -d 0 -p DSR -e 44 -c 2 -a 0 -i 49 -k RTR
+ -t 0.758536337 -s 26 -d -1 -p DSR -e 68 -c 2 -a 0 -i 45 -k RTR 